 Entering Gaussian System, Link 0=g16
 Input=KXDAEFPNCMNJSK-UHFFFAOYSA-N.gjf
 Output=KXDAEFPNCMNJSK-UHFFFAOYSA-N.log
 Initial command:
 /sw/arch/RedHatEnterpriseServer7/EB_production/2019/software/Gaussian/g16.c01/l1.exe "/scratch-local/elenaa.9715231/Gau-23535.inp" -scrdir="/scratch-local/elenaa.9715231/"
 Entering Link 1 = /sw/arch/RedHatEnterpriseServer7/EB_production/2019/software/Gaussian/g16.c01/l1.exe PID=     23536.
  
 Copyright (c) 1988-2019, Gaussian, Inc.  All Rights Reserved.
  
 This is part of the Gaussian(R) 16 program.  It is based on
 the Gaussian(R) 09 system (copyright 2009, Gaussian, Inc.),
 the Gaussian(R) 03 system (copyright 2003, Gaussian, Inc.),
 the Gaussian(R) 98 system (copyright 1998, Gaussian, Inc.),
 the Gaussian(R) 94 system (copyright 1995, Gaussian, Inc.),
 the Gaussian 92(TM) system (copyright 1992, Gaussian, Inc.),
 the Gaussian 90(TM) system (copyright 1990, Gaussian, Inc.),
 the Gaussian 88(TM) system (copyright 1988, Gaussian, Inc.),
 the Gaussian 86(TM) system (copyright 1986, Carnegie Mellon
 University), and the Gaussian 82(TM) system (copyright 1983,
 Carnegie Mellon University). Gaussian is a federally registered
 trademark of Gaussian, Inc.
  
 This software contains proprietary and confidential information,
 including trade secrets, belonging to Gaussian, Inc.
  
 This software is provided under written license and may be
 used, copied, transmitted, or stored only in accord with that
 written license.
  
 The following legend is applicable only to US Government
 contracts under FAR:
  
                    RESTRICTED RIGHTS LEGEND
  
 Use, reproduction and disclosure by the US Government is
 subject to restrictions as set forth in subparagraphs (a)
 and (c) of the Commercial Computer Software - Restricted
 Rights clause in FAR 52.227-19.
  
 Gaussian, Inc.
 340 Quinnipiac St., Bldg. 40, Wallingford CT 06492
  
  
 ---------------------------------------------------------------
 Warning -- This program may not be used in any manner that
 competes with the business of Gaussian, Inc. or will provide
 assistance to any competitor of Gaussian, Inc.  The licensee
 of this program is prohibited from giving any competitor of
 Gaussian, Inc. access to this program.  By using this program,
 the user acknowledges that Gaussian, Inc. is engaged in the
 business of creating and licensing software in the field of
 computational chemistry and represents and warrants to the
 licensee that it is not a competitor of Gaussian, Inc. and that
 it will not use this program in any manner prohibited above.
 ---------------------------------------------------------------
  

 Cite this work as:
 Gaussian 16, Revision C.01,
 M. J. Frisch, G. W. Trucks, H. B. Schlegel, G. E. Scuseria, 
 M. A. Robb, J. R. Cheeseman, G. Scalmani, V. Barone, 
 G. A. Petersson, H. Nakatsuji, X. Li, M. Caricato, A. V. Marenich, 
 J. Bloino, B. G. Janesko, R. Gomperts, B. Mennucci, H. P. Hratchian, 
 J. V. Ortiz, A. F. Izmaylov, J. L. Sonnenberg, D. Williams-Young, 
 F. Ding, F. Lipparini, F. Egidi, J. Goings, B. Peng, A. Petrone, 
 T. Henderson, D. Ranasinghe, V. G. Zakrzewski, J. Gao, N. Rega, 
 G. Zheng, W. Liang, M. Hada, M. Ehara, K. Toyota, R. Fukuda, 
 J. Hasegawa, M. Ishida, T. Nakajima, Y. Honda, O. Kitao, H. Nakai, 
 T. Vreven, K. Throssell, J. A. Montgomery, Jr., J. E. Peralta, 
 F. Ogliaro, M. J. Bearpark, J. J. Heyd, E. N. Brothers, K. N. Kudin, 
 V. N. Staroverov, T. A. Keith, R. Kobayashi, J. Normand, 
 K. Raghavachari, A. P. Rendell, J. C. Burant, S. S. Iyengar, 
 J. Tomasi, M. Cossi, J. M. Millam, M. Klene, C. Adamo, R. Cammi, 
 J. W. Ochterski, R. L. Martin, K. Morokuma, O. Farkas, 
 J. B. Foresman, and D. J. Fox, Gaussian, Inc., Wallingford CT, 2019.
 
 ******************************************
 Gaussian 16:  ES64L-G16RevC.01  3-Jul-2019
                22-Feb-2021 
 ******************************************
 %chk=KXDAEFPNCMNJSK-UHFFFAOYSA-N.chk
 %NProcShared=32
 Will use up to   32 processors via shared memory.
 -------------------------------------------------------------
 #P BP86/TZVP EmpiricalDispersion=GD3 SCRF=(Solvent=Water) Opt
 -------------------------------------------------------------
 1/18=20,19=15,26=3,38=1/1,3;
 2/9=110,12=2,17=6,18=5,40=1/2;
 3/5=19,7=101,11=2,25=1,30=1,70=2201,71=1,72=1,74=404,124=31/1,2,3;
 4//1;
 5/5=2,38=5,53=1/2;
 6/7=2,8=2,9=2,10=2,28=1/1;
 7//1,2,3,16;
 1/18=20,19=15,26=3/3(2);
 2/9=110/2;
 99//99;
 2/9=110/2;
 3/5=19,7=101,11=2,25=1,30=1,70=2205,71=1,72=1,74=404,124=31/1,2,3;
 4/5=5,16=3,69=1/1;
 5/5=2,38=5,53=1/2;
 7//1,2,3,16;
 1/18=20,19=15,26=3/3(-5);
 2/9=110/2;
 6/7=2,8=2,9=2,10=2,19=2,28=1/1;
 99/9=1/99;
 Leave Link    1 at Mon Feb 22 21:11:47 2021, MaxMem=           0 cpu:               2.3 elap:               0.1
 (Enter /sw/arch/RedHatEnterpriseServer7/EB_production/2019/software/Gaussian/g16.c01/l101.exe)
 -------------------------------------
 Particle #KXDAEFPNCMNJSK-UHFFFAOYSA-N
 -------------------------------------
 Symbolic Z-matrix:
 Charge =  0 Multiplicity = 1
 N                    -2.84659   2.31814  -0.15714 
 C                    -2.10219   1.19304  -0.14954 
 O                    -2.75227   0.1229   -0.20051 
 C                    -0.67808   1.193    -0.08368 
 C                     0.04943  -0.02337   0.0042 
 C                     1.45558  -0.02853   0.06946 
 C                     2.16613   1.18297   0.04493 
 C                     1.46707   2.39848  -0.0369 
 C                     0.0613    2.4035   -0.10476 
 H                    -3.8136    2.25775  -0.21021 
 H                    -2.42504   3.19017  -0.10866 
 H                    -0.43559  -0.92463   0.0225 
 H                     1.96415  -0.91342   0.13374 
 H                     3.18821   1.18084   0.08344 
 H                     1.98041   3.28182  -0.04906 
 H                    -0.41076   3.30746  -0.17233 
 
 ITRead=  0  0  0  0  0  0  0  0  0  0  0  0  0  0  0  0
 MicOpt= -1 -1 -1 -1 -1 -1 -1 -1 -1 -1 -1 -1 -1 -1 -1 -1
 NAtoms=     16 NQM=       16 NQMF=       0 NMMI=      0 NMMIF=      0
                NMic=       0 NMicF=      0.
                    Isotopes and Nuclear Properties:
 (Nuclear quadrupole moments (NQMom) in fm**2, nuclear magnetic moments (NMagM)
  in nuclear magnetons)

  Atom         1           2           3           4           5           6           7           8           9          10
 IAtWgt=          14          12          16          12          12          12          12          12          12           1
 AtmWgt=  14.0030740  12.0000000  15.9949146  12.0000000  12.0000000  12.0000000  12.0000000  12.0000000  12.0000000   1.0078250
 NucSpn=           2           0           0           0           0           0           0           0           0           1
 AtZEff=  -0.0000000  -0.0000000  -0.0000000  -0.0000000  -0.0000000  -0.0000000  -0.0000000  -0.0000000  -0.0000000  -0.0000000
 NQMom=    2.0440000   0.0000000   0.0000000   0.0000000   0.0000000   0.0000000   0.0000000   0.0000000   0.0000000   0.0000000
 NMagM=    0.4037610   0.0000000   0.0000000   0.0000000   0.0000000   0.0000000   0.0000000   0.0000000   0.0000000   2.7928460
 AtZNuc=   7.0000000   6.0000000   8.0000000   6.0000000   6.0000000   6.0000000   6.0000000   6.0000000   6.0000000   1.0000000

  Atom        11          12          13          14          15          16
 IAtWgt=           1           1           1           1           1           1
 AtmWgt=   1.0078250   1.0078250   1.0078250   1.0078250   1.0078250   1.0078250
 NucSpn=           1           1           1           1           1           1
 AtZEff=  -0.0000000  -0.0000000  -0.0000000  -0.0000000  -0.0000000  -0.0000000
 NQMom=    0.0000000   0.0000000   0.0000000   0.0000000   0.0000000   0.0000000
 NMagM=    2.7928460   2.7928460   2.7928460   2.7928460   2.7928460   2.7928460
 AtZNuc=   1.0000000   1.0000000   1.0000000   1.0000000   1.0000000   1.0000000
 Leave Link  101 at Mon Feb 22 21:11:48 2021, MaxMem=   104857600 cpu:               2.7 elap:               0.1
 (Enter /sw/arch/RedHatEnterpriseServer7/EB_production/2019/software/Gaussian/g16.c01/l103.exe)

 GradGradGradGradGradGradGradGradGradGradGradGradGradGradGradGradGradGrad
 Berny optimization.
 Initialization pass.
                           ----------------------------
                           !    Initial Parameters    !
                           ! (Angstroms and Degrees)  !
 --------------------------                            --------------------------
 ! Name  Definition              Value          Derivative Info.                !
 --------------------------------------------------------------------------------
 ! R1    R(1,2)                  1.3491         estimate D2E/DX2                !
 ! R2    R(1,10)                 0.9703         estimate D2E/DX2                !
 ! R3    R(1,11)                 0.9698         estimate D2E/DX2                !
 ! R4    R(2,3)                  1.2532         estimate D2E/DX2                !
 ! R5    R(2,4)                  1.4256         estimate D2E/DX2                !
 ! R6    R(4,5)                  1.4201         estimate D2E/DX2                !
 ! R7    R(4,9)                  1.4186         estimate D2E/DX2                !
 ! R8    R(5,6)                  1.4077         estimate D2E/DX2                !
 ! R9    R(5,12)                 1.0236         estimate D2E/DX2                !
 ! R10   R(6,7)                  1.4047         estimate D2E/DX2                !
 ! R11   R(6,13)                 1.0226         estimate D2E/DX2                !
 ! R12   R(7,8)                  1.4046         estimate D2E/DX2                !
 ! R13   R(7,14)                 1.0228         estimate D2E/DX2                !
 ! R14   R(8,9)                  1.4074         estimate D2E/DX2                !
 ! R15   R(8,15)                 1.0217         estimate D2E/DX2                !
 ! R16   R(9,16)                 1.022          estimate D2E/DX2                !
 ! A1    A(2,1,10)             119.8868         estimate D2E/DX2                !
 ! A2    A(2,1,11)             120.6486         estimate D2E/DX2                !
 ! A3    A(10,1,11)            119.4645         estimate D2E/DX2                !
 ! A4    A(1,2,3)              115.1954         estimate D2E/DX2                !
 ! A5    A(1,2,4)              123.4682         estimate D2E/DX2                !
 ! A6    A(3,2,4)              121.336          estimate D2E/DX2                !
 ! A7    A(2,4,5)              120.9739         estimate D2E/DX2                !
 ! A8    A(2,4,9)              121.3279         estimate D2E/DX2                !
 ! A9    A(5,4,9)              117.6981         estimate D2E/DX2                !
 ! A10   A(4,5,6)              121.1826         estimate D2E/DX2                !
 ! A11   A(4,5,12)             120.832          estimate D2E/DX2                !
 ! A12   A(6,5,12)             117.9855         estimate D2E/DX2                !
 ! A13   A(5,6,7)              120.087          estimate D2E/DX2                !
 ! A14   A(5,6,13)             120.1891         estimate D2E/DX2                !
 ! A15   A(7,6,13)             119.7238         estimate D2E/DX2                !
 ! A16   A(6,7,8)              119.7109         estimate D2E/DX2                !
 ! A17   A(6,7,14)             120.2            estimate D2E/DX2                !
 ! A18   A(8,7,14)             120.0888         estimate D2E/DX2                !
 ! A19   A(7,8,9)              120.1996         estimate D2E/DX2                !
 ! A20   A(7,8,15)             119.9212         estimate D2E/DX2                !
 ! A21   A(9,8,15)             119.8791         estimate D2E/DX2                !
 ! A22   A(4,9,8)              121.1201         estimate D2E/DX2                !
 ! A23   A(4,9,16)             120.9956         estimate D2E/DX2                !
 ! A24   A(8,9,16)             117.8842         estimate D2E/DX2                !
 ! D1    D(10,1,2,3)            -0.7025         estimate D2E/DX2                !
 ! D2    D(10,1,2,4)           179.5301         estimate D2E/DX2                !
 ! D3    D(11,1,2,3)           179.2055         estimate D2E/DX2                !
 ! D4    D(11,1,2,4)            -0.5618         estimate D2E/DX2                !
 ! D5    D(1,2,4,5)            176.0853         estimate D2E/DX2                !
 ! D6    D(1,2,4,9)             -3.976          estimate D2E/DX2                !
 ! D7    D(3,2,4,5)             -3.6683         estimate D2E/DX2                !
 ! D8    D(3,2,4,9)            176.2704         estimate D2E/DX2                !
 ! D9    D(2,4,5,6)           -179.9999         estimate D2E/DX2                !
 ! D10   D(2,4,5,12)            -0.0354         estimate D2E/DX2                !
 ! D11   D(9,4,5,6)              0.0592         estimate D2E/DX2                !
 ! D12   D(9,4,5,12)          -179.9763         estimate D2E/DX2                !
 ! D13   D(2,4,9,8)            179.8756         estimate D2E/DX2                !
 ! D14   D(2,4,9,16)            -0.2913         estimate D2E/DX2                !
 ! D15   D(5,4,9,8)             -0.1837         estimate D2E/DX2                !
 ! D16   D(5,4,9,16)           179.6494         estimate D2E/DX2                !
 ! D17   D(4,5,6,7)             -0.1587         estimate D2E/DX2                !
 ! D18   D(4,5,6,13)           179.9156         estimate D2E/DX2                !
 ! D19   D(12,5,6,7)           179.8758         estimate D2E/DX2                !
 ! D20   D(12,5,6,13)           -0.0499         estimate D2E/DX2                !
 ! D21   D(5,6,7,8)              0.378          estimate D2E/DX2                !
 ! D22   D(5,6,7,14)          -179.4277         estimate D2E/DX2                !
 ! D23   D(13,6,7,8)          -179.6959         estimate D2E/DX2                !
 ! D24   D(13,6,7,14)            0.4984         estimate D2E/DX2                !
 ! D25   D(6,7,8,9)             -0.5018         estimate D2E/DX2                !
 ! D26   D(6,7,8,15)           179.6178         estimate D2E/DX2                !
 ! D27   D(14,7,8,9)           179.3042         estimate D2E/DX2                !
 ! D28   D(14,7,8,15)           -0.5763         estimate D2E/DX2                !
 ! D29   D(7,8,9,4)              0.4088         estimate D2E/DX2                !
 ! D30   D(7,8,9,16)          -179.4293         estimate D2E/DX2                !
 ! D31   D(15,8,9,4)          -179.7107         estimate D2E/DX2                !
 ! D32   D(15,8,9,16)            0.4512         estimate D2E/DX2                !
 --------------------------------------------------------------------------------
 Trust Radius=3.00D-01 FncErr=1.00D-07 GrdErr=1.00D-06 EigMax=2.50D+02 EigMin=1.00D-04
 Number of steps in this run=     82 maximum allowed number of steps=    100.
 GradGradGradGradGradGradGradGradGradGradGradGradGradGradGradGradGradGrad

 Leave Link  103 at Mon Feb 22 21:11:48 2021, MaxMem=   104857600 cpu:               0.4 elap:               0.0
 (Enter /sw/arch/RedHatEnterpriseServer7/EB_production/2019/software/Gaussian/g16.c01/l202.exe)
                          Input orientation:                          
 ---------------------------------------------------------------------
 Center     Atomic      Atomic             Coordinates (Angstroms)
 Number     Number       Type             X           Y           Z
 ---------------------------------------------------------------------
      1          7           0       -2.846590    2.318140   -0.157140
      2          6           0       -2.102190    1.193040   -0.149540
      3          8           0       -2.752270    0.122900   -0.200510
      4          6           0       -0.678080    1.193000   -0.083680
      5          6           0        0.049430   -0.023370    0.004200
      6          6           0        1.455580   -0.028530    0.069460
      7          6           0        2.166130    1.182970    0.044930
      8          6           0        1.467070    2.398480   -0.036900
      9          6           0        0.061300    2.403500   -0.104760
     10          1           0       -3.813600    2.257750   -0.210210
     11          1           0       -2.425040    3.190170   -0.108660
     12          1           0       -0.435590   -0.924630    0.022500
     13          1           0        1.964150   -0.913420    0.133740
     14          1           0        3.188210    1.180840    0.083440
     15          1           0        1.980410    3.281820   -0.049060
     16          1           0       -0.410760    3.307460   -0.172330
 ---------------------------------------------------------------------
                    Distance matrix (angstroms):
                    1          2          3          4          5
     1  N    0.000000
     2  C    1.349088   0.000000
     3  O    2.197693   1.253157   0.000000
     4  C    2.444130   1.425632   2.336884   0.000000
     5  C    3.727684   2.476441   2.812974   1.420053   0.000000
     6  C    4.905800   3.768013   4.219220   2.463350   1.407673
     7  C    5.143618   4.272760   5.037325   2.847134   2.436665
     8  C    4.316083   3.769004   4.796651   2.461105   2.806555
     9  C    2.909614   2.479497   3.623049   1.418604   2.429344
    10  H    0.970346   2.016485   2.384135   3.313788   4.491379
    11  H    0.969789   2.023470   3.086043   2.653522   4.057410
    12  H    4.044842   2.700311   2.552265   2.134112   1.023645
    13  H    5.802655   4.588305   4.840485   3.386097   2.115448
    14  H    6.145742   5.295542   6.040626   3.869919   3.362788
    15  H    4.923443   4.587017   5.692097   3.381115   3.828290
    16  H    2.629116   2.707808   3.952833   2.133134   3.367101
                    6          7          8          9         10
     6  C    0.000000
     7  C    1.404712   0.000000
     8  C    2.429367   1.404580   0.000000
     9  C    2.808761   2.437706   1.407416   0.000000
    10  H    5.750613   6.080906   5.285387   3.879074   0.000000
    11  H    5.044895   5.013111   3.972461   2.607825   1.675655
    12  H    2.093257   3.348347   3.829713   3.367424   4.646789
    13  H    1.022646   2.107969   3.353340   3.831407   6.599774
    14  H    2.113002   1.022807   2.111741   3.362720   7.090226
    15  H    3.353790   2.109146   1.021741   2.111287   5.886021
    16  H    3.830211   3.346793   2.090653   1.022032   3.561270
                   11         12         13         14         15
    11  H    0.000000
    12  H    4.572384   0.000000
    13  H    6.013584   2.402343   0.000000
    14  H    5.965139   4.191497   2.426268   0.000000
    15  H    4.406806   4.851433   4.199252   2.427026   0.000000
    16  H    2.018696   4.236645   4.852804   4.188140   2.394483
                   16
    16  H    0.000000
 Stoichiometry    C7H7NO
 Framework group  C1[X(C7H7NO)]
 Deg. of freedom    42
 Full point group                 C1      NOp   1
 Largest Abelian subgroup         C1      NOp   1
 Largest concise Abelian subgroup C1      NOp   1
                         Standard orientation:                         
 ---------------------------------------------------------------------
 Center     Atomic      Atomic             Coordinates (Angstroms)
 Number     Number       Type             X           Y           Z
 ---------------------------------------------------------------------
      1          7           0       -2.467958    0.977824    0.047471
      2          6           0       -1.672867   -0.110786   -0.005406
      3          8           0       -2.274527   -1.208992   -0.053895
      4          6           0       -0.248751   -0.045112   -0.002472
      5          6           0        0.537327   -1.227468    0.023333
      6          6           0        1.943729   -1.167741    0.026335
      7          6           0        2.595797    0.076180    0.000222
      8          6           0        1.838423    1.258884   -0.020818
      9          6           0        0.432289    1.199093   -0.026436
     10          1           0       -3.432562    0.873083    0.035658
     11          1           0       -2.085324    1.867464    0.098695
     12          1           0        0.095724   -2.150793    0.040888
     13          1           0        2.494965   -2.028870    0.046368
     14          1           0        3.617582    0.121413   -0.006471
     15          1           0        2.309391    2.165511   -0.033930
     16          1           0       -0.083542    2.081063   -0.050899
 ---------------------------------------------------------------------
 Rotational constants (GHZ):           3.8929073           1.2144147           0.9260767
 Leave Link  202 at Mon Feb 22 21:11:48 2021, MaxMem=   104857600 cpu:               1.7 elap:               0.1
 (Enter /sw/arch/RedHatEnterpriseServer7/EB_production/2019/software/Gaussian/g16.c01/l301.exe)
 Standard basis: TZVP (5D, 7F)
 Ernie: Thresh=  0.10000D-02 Tol=  0.10000D-05 Strict=F.
 There are   222 symmetry adapted cartesian basis functions of A   symmetry.
 There are   213 symmetry adapted basis functions of A   symmetry.
   213 basis functions,   371 primitive gaussians,   222 cartesian basis functions
    32 alpha electrons       32 beta electrons
       nuclear repulsion energy       405.8666861688 Hartrees.
 IExCor=  404 DFT=T Ex=B Corr=P86 ExCW=0 ScaHFX=  0.000000
 ScaDFX=  1.000000  1.000000  1.000000  1.000000 ScalE2=  1.000000  1.000000
 IRadAn=      5 IRanWt=     -1 IRanGd=            0 ICorTp=0 IEmpDi=131
 NAtoms=   16 NActive=   16 NUniq=   16 SFac= 1.00D+00 NAtFMM=   60 NAOKFM=F Big=F
 Integral buffers will be    131072 words long.
 Raffenetti 2 integral format.
 Two-electron integral symmetry is turned on.
 R6Disp:  Grimme-D3 Dispersion energy=       -0.0117572667 Hartrees.
 Nuclear repulsion after empirical dispersion term =      405.8549289020 Hartrees.
 ------------------------------------------------------------------------------
 Polarizable Continuum Model (PCM)
 =================================
 Model                : PCM.
 Atomic radii         : UFF (Universal Force Field).
 Polarization charges : Total charges.
 Charge compensation  : None.
 Solution method      : On-the-fly selection.
 Cavity type          : Scaled VdW (van der Waals Surface) (Alpha=1.100).
 Cavity algorithm     : GePol (No added spheres)
                        Default sphere list used, NSphG=   16.
                        Lebedev-Laikov grids with approx.  5.0 points / Ang**2.
                        Smoothing algorithm: York/Karplus (Gamma=1.0000).
                        Polarization charges: spherical gaussians, with
                                              point-specific exponents (IZeta= 3).
                        Self-potential: point-specific (ISelfS= 7).
                        Self-field    : sphere-specific E.n sum rule (ISelfD= 2).
 1st derivatives      : Analytical E(r).r(x)/FMM algorithm (CHGder, D1EAlg=3).
                        Cavity 1st derivative terms included.
 Solvent              : Water, Eps=  78.355300 Eps(inf)=   1.777849
 ------------------------------------------------------------------------------
 Spheres list:
 ISph  on   Nord     Re0    Alpha      Xe            Ye            Ze
    1   N      1    1.8300  1.100     -2.467958      0.977824      0.047471
    2   C      2    1.9255  1.100     -1.672867     -0.110786     -0.005406
    3   O      3    1.7500  1.100     -2.274527     -1.208992     -0.053895
    4   C      4    1.9255  1.100     -0.248751     -0.045112     -0.002472
    5   C      5    1.9255  1.100      0.537327     -1.227468      0.023333
    6   C      6    1.9255  1.100      1.943729     -1.167741      0.026335
    7   C      7    1.9255  1.100      2.595797      0.076180      0.000222
    8   C      8    1.9255  1.100      1.838423      1.258884     -0.020818
    9   C      9    1.9255  1.100      0.432289      1.199093     -0.026436
   10   H     10    1.4430  1.100     -3.432562      0.873083      0.035658
   11   H     11    1.4430  1.100     -2.085324      1.867464      0.098695
   12   H     12    1.4430  1.100      0.095724     -2.150793      0.040888
   13   H     13    1.4430  1.100      2.494965     -2.028870      0.046368
   14   H     14    1.4430  1.100      3.617582      0.121413     -0.006471
   15   H     15    1.4430  1.100      2.309391      2.165511     -0.033930
   16   H     16    1.4430  1.100     -0.083542      2.081063     -0.050899
 ------------------------------------------------------------------------------
 GePol: Number of generator spheres                  =      16
 GePol: Total number of spheres                      =      16
 GePol: Number of exposed spheres                    =      16 (100.00%)
 GePol: Number of points                             =    1390
 GePol: Average weight of points                     =       0.13
 GePol: Minimum weight of points                     =   0.37D-11
 GePol: Maximum weight of points                     =    0.20577
 GePol: Number of points with low weight             =      71
 GePol: Fraction of low-weight points (<1% of avg)   =       5.11%
 GePol: Cavity surface area                          =    179.845 Ang**2
 GePol: Cavity volume                                =    177.711 Ang**3
 Leave Link  301 at Mon Feb 22 21:11:48 2021, MaxMem=   104857600 cpu:               1.9 elap:               0.1
 (Enter /sw/arch/RedHatEnterpriseServer7/EB_production/2019/software/Gaussian/g16.c01/l302.exe)
 NPDir=0 NMtPBC=     1 NCelOv=     1 NCel=       1 NClECP=     1 NCelD=      1
         NCelK=      1 NCelE2=     1 NClLst=     1 CellRange=     0.0.
 One-electron integrals computed using PRISM.
 One-electron integral symmetry used in STVInt
 PrsmSu:  requested number of processors reduced to:  29 ShMem   1 Linda.
 NBasis=   213 RedAO= T EigKep=  9.64D-06  NBF=   213
 NBsUse=   213 1.00D-06 EigRej= -1.00D+00 NBFU=   213
 Precomputing XC quadrature grid using
 IXCGrd= 4 IRadAn=           5 IRanWt=          -1 IRanGd=           0 AccXCQ= 0.00D+00.
 Generated NRdTot=       0 NPtTot=           0 NUsed=           0 NTot=          32
 NSgBfM=   221   221   221   221   221 MxSgAt=    16 MxSgA2=    16.
 Leave Link  302 at Mon Feb 22 21:11:48 2021, MaxMem=   104857600 cpu:               8.9 elap:               0.3
 (Enter /sw/arch/RedHatEnterpriseServer7/EB_production/2019/software/Gaussian/g16.c01/l303.exe)
 DipDrv:  MaxL=1.
 Leave Link  303 at Mon Feb 22 21:11:49 2021, MaxMem=   104857600 cpu:               2.0 elap:               0.1
 (Enter /sw/arch/RedHatEnterpriseServer7/EB_production/2019/software/Gaussian/g16.c01/l401.exe)
 ExpMin= 9.52D-02 ExpMax= 2.70D+04 ExpMxC= 9.22D+02 IAcc=3 IRadAn=         5 AccDes= 0.00D+00
 Harris functional with IExCor=  404 and IRadAn=       5 diagonalized for initial guess.
 HarFok:  IExCor=  404 AccDes= 0.00D+00 IRadAn=         5 IDoV= 1 UseB2=F ITyADJ=14
 ICtDFT=  3500011 ScaDFX=  1.000000  1.000000  1.000000  1.000000
 FoFCou: FMM=F IPFlag=           0 FMFlag=      100000 FMFlg1=           0
         NFxFlg=           0 DoJE=T BraDBF=F KetDBF=T FulRan=T
         wScrn=  0.000000 ICntrl=       500 IOpCl=  0 I1Cent=   200000004 NGrid=           0
         NMat0=    1 NMatS0=      1 NMatT0=    0 NMatD0=    1 NMtDS0=    0 NMtDT0=    0
 Petite list used in FoFCou.
 Harris En= -401.243155126578    
 JPrj=0 DoOrth=F DoCkMO=F.
 Leave Link  401 at Mon Feb 22 21:11:49 2021, MaxMem=   104857600 cpu:               9.7 elap:               0.3
 (Enter /sw/arch/RedHatEnterpriseServer7/EB_production/2019/software/Gaussian/g16.c01/l502.exe)
 Integral symmetry usage will be decided dynamically.
 Closed shell SCF:
 Using DIIS extrapolation, IDIIS=  1040.
 NGot=   104857600 LenX=   104749276 LenY=   104699551
 Requested convergence on RMS density matrix=1.00D-08 within 128 cycles.
 Requested convergence on MAX density matrix=1.00D-06.
 Requested convergence on             energy=1.00D-06.
 No special actions if energy rises.
 Fock matrices will be formed incrementally for  20 cycles.

 Cycle   1  Pass 1  IDiag  1:
 FoFJK:  IHMeth= 1 ICntrl=     500 DoSepK=F KAlg= 0 I1Cent=           0 FoldK=F
 IRaf= 930000000 NMat=       1 IRICut=       1 DoRegI=T DoRafI=F ISym2E= 0 IDoP0=0 IntGTp=1.
 FoFCou: FMM=F IPFlag=           0 FMFlag=      100000 FMFlg1=           0
         NFxFlg=           0 DoJE=T BraDBF=F KetDBF=F FulRan=T
         wScrn=  0.000000 ICntrl=       500 IOpCl=  0 I1Cent=           0 NGrid=           0
         NMat0=    1 NMatS0=      1 NMatT0=    0 NMatD0=    1 NMtDS0=    0 NMtDT0=    0
 Symmetry not used in FoFCou.
 Inv3:  Mode=1 IEnd=     5796300.
 Iteration    1 A*A^-1 deviation from unit magnitude is 3.55D-15 for   1101.
 Iteration    1 A*A^-1 deviation from orthogonality  is 2.11D-15 for   1317   1106.
 Iteration    1 A^-1*A deviation from unit magnitude is 3.33D-15 for   1101.
 Iteration    1 A^-1*A deviation from orthogonality  is 1.33D-15 for   1092    118.
 E= -400.868946449875    
 DIIS: error= 4.03D-02 at cycle   1 NSaved=   1.
 NSaved= 1 IEnMin= 1 EnMin= -400.868946449875     IErMin= 1 ErrMin= 4.03D-02
 ErrMax= 4.03D-02  0.00D+00 EMaxC= 1.00D-01 BMatC= 2.48D-01 BMatP= 2.48D-01
 IDIUse=3 WtCom= 5.97D-01 WtEn= 4.03D-01
 Coeff-Com:  0.100D+01
 Coeff-En:   0.100D+01
 Coeff:      0.100D+01
 Gap=     0.135 Goal=   None    Shift=    0.000
 GapD=    0.135 DampG=1.000 DampE=0.500 DampFc=0.5000 IDamp=-1.
 Damping current iteration by 5.00D-01
 RMSDP=2.84D-02 MaxDP=2.67D+00              OVMax= 3.48D-01

 Cycle   2  Pass 1  IDiag  1:
 RMSU=  1.42D-02    CP:  1.06D+00
 E= -400.883708601095     Delta-E=       -0.014762151220 Rises=F Damp=T
 DIIS: error= 2.11D-02 at cycle   2 NSaved=   2.
 NSaved= 2 IEnMin= 2 EnMin= -400.883708601095     IErMin= 2 ErrMin= 2.11D-02
 ErrMax= 2.11D-02  0.00D+00 EMaxC= 1.00D-01 BMatC= 7.71D-02 BMatP= 2.48D-01
 IDIUse=3 WtCom= 7.89D-01 WtEn= 2.11D-01
 Coeff-Com:  0.320D+00 0.680D+00
 Coeff-En:   0.472D+00 0.528D+00
 Coeff:      0.352D+00 0.648D+00
 Gap=     0.143 Goal=   None    Shift=    0.000
 RMSDP=1.14D-02 MaxDP=1.12D+00 DE=-1.48D-02 OVMax= 2.95D-01

 Cycle   3  Pass 1  IDiag  1:
 RMSU=  2.76D-03    CP:  9.68D-01  2.25D-01
 E= -401.019088634492     Delta-E=       -0.135380033397 Rises=F Damp=F
 DIIS: error= 2.86D-02 at cycle   3 NSaved=   3.
 NSaved= 3 IEnMin= 3 EnMin= -401.019088634492     IErMin= 2 ErrMin= 2.11D-02
 ErrMax= 2.86D-02  0.00D+00 EMaxC= 1.00D-01 BMatC= 7.88D-02 BMatP= 7.71D-02
 IDIUse=3 WtCom= 7.14D-01 WtEn= 2.86D-01
 EnCoef did     2 forward-backward iterations
 Coeff-Com:  0.153D+00 0.473D+00 0.374D+00
 Coeff-En:   0.866D-02 0.803D-01 0.911D+00
 Coeff:      0.111D+00 0.361D+00 0.527D+00
 Gap=     0.160 Goal=   None    Shift=    0.000
 RMSDP=4.59D-03 MaxDP=3.89D-01 DE=-1.35D-01 OVMax= 2.15D-01

 Cycle   4  Pass 1  IDiag  1:
 RMSU=  2.11D-03    CP:  1.02D+00  5.02D-01  7.37D-01
 E= -401.044359262342     Delta-E=       -0.025270627849 Rises=F Damp=F
 DIIS: error= 2.51D-02 at cycle   4 NSaved=   4.
 NSaved= 4 IEnMin= 4 EnMin= -401.044359262342     IErMin= 2 ErrMin= 2.11D-02
 ErrMax= 2.51D-02  0.00D+00 EMaxC= 1.00D-01 BMatC= 5.27D-02 BMatP= 7.71D-02
 IDIUse=3 WtCom= 7.49D-01 WtEn= 2.51D-01
 Coeff-Com:  0.612D-01 0.121D+00 0.407D+00 0.411D+00
 Coeff-En:   0.000D+00 0.000D+00 0.418D+00 0.582D+00
 Coeff:      0.458D-01 0.907D-01 0.410D+00 0.454D+00
 Gap=     0.129 Goal=   None    Shift=    0.000
 RMSDP=2.96D-03 MaxDP=2.57D-01 DE=-2.53D-02 OVMax= 1.12D-01

 Cycle   5  Pass 1  IDiag  1:
 RMSU=  3.59D-04    CP:  9.97D-01  3.09D-01  8.02D-01  5.24D-01
 E= -401.085334796539     Delta-E=       -0.040975534198 Rises=F Damp=F
 DIIS: error= 3.62D-03 at cycle   5 NSaved=   5.
 NSaved= 5 IEnMin= 5 EnMin= -401.085334796539     IErMin= 5 ErrMin= 3.62D-03
 ErrMax= 3.62D-03  0.00D+00 EMaxC= 1.00D-01 BMatC= 1.47D-03 BMatP= 5.27D-02
 IDIUse=3 WtCom= 9.64D-01 WtEn= 3.62D-02
 Coeff-Com:  0.127D-01 0.138D-01 0.192D+00 0.274D+00 0.508D+00
 Coeff-En:   0.000D+00 0.000D+00 0.000D+00 0.000D+00 0.100D+01
 Coeff:      0.123D-01 0.133D-01 0.185D+00 0.264D+00 0.526D+00
 Gap=     0.127 Goal=   None    Shift=    0.000
 RMSDP=5.64D-04 MaxDP=4.34D-02 DE=-4.10D-02 OVMax= 1.96D-02

 Cycle   6  Pass 1  IDiag  1:
 RMSU=  1.62D-04    CP:  9.98D-01  3.45D-01  8.29D-01  5.52D-01  6.01D-01
 E= -401.086501478937     Delta-E=       -0.001166682397 Rises=F Damp=F
 DIIS: error= 1.04D-03 at cycle   6 NSaved=   6.
 NSaved= 6 IEnMin= 6 EnMin= -401.086501478937     IErMin= 6 ErrMin= 1.04D-03
 ErrMax= 1.04D-03  0.00D+00 EMaxC= 1.00D-01 BMatC= 2.17D-04 BMatP= 1.47D-03
 IDIUse=3 WtCom= 9.90D-01 WtEn= 1.04D-02
 Coeff-Com: -0.795D-03-0.931D-03 0.472D-01 0.799D-01 0.333D+00 0.541D+00
 Coeff-En:   0.000D+00 0.000D+00 0.000D+00 0.000D+00 0.170D+00 0.830D+00
 Coeff:     -0.786D-03-0.921D-03 0.467D-01 0.791D-01 0.332D+00 0.544D+00
 Gap=     0.128 Goal=   None    Shift=    0.000
 RMSDP=1.10D-04 MaxDP=6.46D-03 DE=-1.17D-03 OVMax= 8.32D-03

 Cycle   7  Pass 1  IDiag  1:
 RMSU=  3.93D-05    CP:  9.98D-01  3.40D-01  8.24D-01  5.52D-01  6.93D-01
                    CP:  6.20D-01
 E= -401.086697048084     Delta-E=       -0.000195569147 Rises=F Damp=F
 DIIS: error= 6.20D-04 at cycle   7 NSaved=   7.
 NSaved= 7 IEnMin= 7 EnMin= -401.086697048084     IErMin= 7 ErrMin= 6.20D-04
 ErrMax= 6.20D-04  0.00D+00 EMaxC= 1.00D-01 BMatC= 2.98D-05 BMatP= 2.17D-04
 IDIUse=3 WtCom= 9.94D-01 WtEn= 6.20D-03
 Coeff-Com: -0.134D-02-0.794D-03 0.137D-01 0.249D-01 0.175D+00 0.366D+00
 Coeff-Com:  0.422D+00
 Coeff-En:   0.000D+00 0.000D+00 0.000D+00 0.000D+00 0.000D+00 0.901D-01
 Coeff-En:   0.910D+00
 Coeff:     -0.133D-02-0.789D-03 0.136D-01 0.248D-01 0.174D+00 0.365D+00
 Coeff:      0.425D+00
 Gap=     0.127 Goal=   None    Shift=    0.000
 RMSDP=2.92D-05 MaxDP=1.37D-03 DE=-1.96D-04 OVMax= 3.01D-03

 Cycle   8  Pass 1  IDiag  1:
 RMSU=  1.67D-05    CP:  9.98D-01  3.41D-01  8.25D-01  5.53D-01  6.80D-01
                    CP:  6.62D-01  5.87D-01
 E= -401.086728568885     Delta-E=       -0.000031520802 Rises=F Damp=F
 DIIS: error= 1.12D-04 at cycle   8 NSaved=   8.
 NSaved= 8 IEnMin= 8 EnMin= -401.086728568885     IErMin= 8 ErrMin= 1.12D-04
 ErrMax= 1.12D-04  0.00D+00 EMaxC= 1.00D-01 BMatC= 1.44D-06 BMatP= 2.98D-05
 IDIUse=3 WtCom= 9.99D-01 WtEn= 1.12D-03
 Coeff-Com: -0.262D-03 0.624D-04 0.129D-02 0.152D-02 0.440D-01 0.112D+00
 Coeff-Com:  0.222D+00 0.620D+00
 Coeff-En:   0.000D+00 0.000D+00 0.000D+00 0.000D+00 0.000D+00 0.000D+00
 Coeff-En:   0.000D+00 0.100D+01
 Coeff:     -0.262D-03 0.624D-04 0.129D-02 0.152D-02 0.439D-01 0.112D+00
 Coeff:      0.222D+00 0.620D+00
 Gap=     0.127 Goal=   None    Shift=    0.000
 RMSDP=1.58D-05 MaxDP=1.19D-03 DE=-3.15D-05 OVMax= 4.65D-04

 Cycle   9  Pass 1  IDiag  1:
 RMSU=  3.29D-06    CP:  9.98D-01  3.40D-01  8.25D-01  5.52D-01  6.90D-01
                    CP:  6.59D-01  6.00D-01  6.61D-01
 E= -401.086729925692     Delta-E=       -0.000001356807 Rises=F Damp=F
 DIIS: error= 2.36D-05 at cycle   9 NSaved=   9.
 NSaved= 9 IEnMin= 9 EnMin= -401.086729925692     IErMin= 9 ErrMin= 2.36D-05
 ErrMax= 2.36D-05  0.00D+00 EMaxC= 1.00D-01 BMatC= 1.16D-07 BMatP= 1.44D-06
 IDIUse=1 WtCom= 1.00D+00 WtEn= 0.00D+00
 Coeff-Com: -0.575D-04-0.134D-04 0.229D-03-0.154D-03 0.170D-01 0.475D-01
 Coeff-Com:  0.107D+00 0.348D+00 0.481D+00
 Coeff:     -0.575D-04-0.134D-04 0.229D-03-0.154D-03 0.170D-01 0.475D-01
 Coeff:      0.107D+00 0.348D+00 0.481D+00
 Gap=     0.127 Goal=   None    Shift=    0.000
 RMSDP=2.61D-06 MaxDP=1.37D-04 DE=-1.36D-06 OVMax= 8.64D-05

 Cycle  10  Pass 1  IDiag  1:
 RMSU=  1.02D-06    CP:  9.98D-01  3.40D-01  8.25D-01  5.52D-01  6.89D-01
                    CP:  6.63D-01  6.04D-01  6.93D-01  6.65D-01
 E= -401.086730029727     Delta-E=       -0.000000104035 Rises=F Damp=F
 DIIS: error= 5.50D-06 at cycle  10 NSaved=  10.
 NSaved=10 IEnMin=10 EnMin= -401.086730029727     IErMin=10 ErrMin= 5.50D-06
 ErrMax= 5.50D-06  0.00D+00 EMaxC= 1.00D-01 BMatC= 4.70D-09 BMatP= 1.16D-07
 IDIUse=1 WtCom= 1.00D+00 WtEn= 0.00D+00
 Coeff-Com:  0.159D-04-0.427D-04 0.398D-04-0.161D-03 0.348D-02 0.113D-01
 Coeff-Com:  0.280D-01 0.939D-01 0.209D+00 0.655D+00
 Coeff:      0.159D-04-0.427D-04 0.398D-04-0.161D-03 0.348D-02 0.113D-01
 Coeff:      0.280D-01 0.939D-01 0.209D+00 0.655D+00
 Gap=     0.127 Goal=   None    Shift=    0.000
 RMSDP=5.43D-07 MaxDP=1.96D-05 DE=-1.04D-07 OVMax= 3.35D-05

 Cycle  11  Pass 1  IDiag  1:
 RMSU=  3.05D-07    CP:  9.98D-01  3.40D-01  8.25D-01  5.52D-01  6.88D-01
                    CP:  6.64D-01  6.08D-01  7.01D-01  6.66D-01  8.59D-01
 E= -401.086730024614     Delta-E=        0.000000005113 Rises=F Damp=F
 DIIS: error= 2.48D-06 at cycle  11 NSaved=  11.
 NSaved=11 IEnMin=10 EnMin= -401.086730029727     IErMin=11 ErrMin= 2.48D-06
 ErrMax= 2.48D-06  0.00D+00 EMaxC= 1.00D-01 BMatC= 1.29D-09 BMatP= 4.70D-09
 IDIUse=1 WtCom= 1.00D+00 WtEn= 0.00D+00
 Coeff-Com:  0.203D-04-0.275D-04 0.159D-04-0.849D-04 0.629D-03 0.280D-02
 Coeff-Com:  0.808D-02 0.281D-01 0.940D-01 0.436D+00 0.430D+00
 Coeff:      0.203D-04-0.275D-04 0.159D-04-0.849D-04 0.629D-03 0.280D-02
 Coeff:      0.808D-02 0.281D-01 0.940D-01 0.436D+00 0.430D+00
 Gap=     0.127 Goal=   None    Shift=    0.000
 RMSDP=3.60D-07 MaxDP=2.88D-05 DE= 5.11D-09 OVMax= 1.78D-05

 Cycle  12  Pass 1  IDiag  1:
 RMSU=  9.72D-08    CP:  9.98D-01  3.40D-01  8.25D-01  5.52D-01  6.88D-01
                    CP:  6.63D-01  6.08D-01  6.99D-01  6.82D-01  8.59D-01
                    CP:  5.84D-01
 E= -401.086730025893     Delta-E=       -0.000000001279 Rises=F Damp=F
 DIIS: error= 3.74D-07 at cycle  12 NSaved=  12.
 NSaved=12 IEnMin=10 EnMin= -401.086730029727     IErMin=12 ErrMin= 3.74D-07
 ErrMax= 3.74D-07  0.00D+00 EMaxC= 1.00D-01 BMatC= 1.72D-11 BMatP= 1.29D-09
 IDIUse=1 WtCom= 1.00D+00 WtEn= 0.00D+00
 Coeff-Com:  0.620D-05-0.804D-05 0.484D-05-0.194D-04 0.328D-04 0.317D-03
 Coeff-Com:  0.117D-02 0.436D-02 0.210D-01 0.114D+00 0.159D+00 0.700D+00
 Coeff:      0.620D-05-0.804D-05 0.484D-05-0.194D-04 0.328D-04 0.317D-03
 Coeff:      0.117D-02 0.436D-02 0.210D-01 0.114D+00 0.159D+00 0.700D+00
 Gap=     0.127 Goal=   None    Shift=    0.000
 RMSDP=3.61D-08 MaxDP=1.27D-06 DE=-1.28D-09 OVMax= 3.13D-06

 Cycle  13  Pass 1  IDiag  1:
 RMSU=  2.83D-08    CP:  9.98D-01  3.40D-01  8.25D-01  5.52D-01  6.88D-01
                    CP:  6.63D-01  6.08D-01  6.99D-01  6.83D-01  8.66D-01
                    CP:  6.05D-01  8.76D-01
 E= -401.086730025899     Delta-E=       -0.000000000006 Rises=F Damp=F
 DIIS: error= 2.87D-07 at cycle  13 NSaved=  13.
 NSaved=13 IEnMin=10 EnMin= -401.086730029727     IErMin=13 ErrMin= 2.87D-07
 ErrMax= 2.87D-07  0.00D+00 EMaxC= 1.00D-01 BMatC= 1.02D-11 BMatP= 1.72D-11
 IDIUse=1 WtCom= 1.00D+00 WtEn= 0.00D+00
 Coeff-Com:  0.235D-05-0.339D-05 0.201D-05-0.583D-05-0.221D-04-0.649D-05
 Coeff-Com:  0.134D-03 0.697D-03 0.647D-02 0.403D-01 0.726D-01 0.488D+00
 Coeff-Com:  0.392D+00
 Coeff:      0.235D-05-0.339D-05 0.201D-05-0.583D-05-0.221D-04-0.649D-05
 Coeff:      0.134D-03 0.697D-03 0.647D-02 0.403D-01 0.726D-01 0.488D+00
 Coeff:      0.392D+00
 Gap=     0.127 Goal=   None    Shift=    0.000
 RMSDP=2.02D-08 MaxDP=1.15D-06 DE=-6.14D-12 OVMax= 1.57D-06

 Cycle  14  Pass 1  IDiag  1:
 RMSU=  1.10D-08    CP:  9.98D-01  3.40D-01  8.25D-01  5.52D-01  6.88D-01
                    CP:  6.63D-01  6.08D-01  6.99D-01  6.82D-01  8.68D-01
                    CP:  6.12D-01  8.87D-01  6.72D-01
 E= -401.086730025911     Delta-E=       -0.000000000011 Rises=F Damp=F
 DIIS: error= 4.90D-08 at cycle  14 NSaved=  14.
 NSaved=14 IEnMin=10 EnMin= -401.086730029727     IErMin=14 ErrMin= 4.90D-08
 ErrMax= 4.90D-08  0.00D+00 EMaxC= 1.00D-01 BMatC= 1.85D-13 BMatP= 1.02D-11
 IDIUse=1 WtCom= 1.00D+00 WtEn= 0.00D+00
 Coeff-Com:  0.583D-06-0.859D-06 0.501D-06-0.128D-05-0.126D-04-0.306D-04
 Coeff-Com: -0.370D-04-0.863D-05 0.138D-02 0.981D-02 0.215D-01 0.171D+00
 Coeff-Com:  0.179D+00 0.617D+00
 Coeff:      0.583D-06-0.859D-06 0.501D-06-0.128D-05-0.126D-04-0.306D-04
 Coeff:     -0.370D-04-0.863D-05 0.138D-02 0.981D-02 0.215D-01 0.171D+00
 Coeff:      0.179D+00 0.617D+00
 Gap=     0.127 Goal=   None    Shift=    0.000
 RMSDP=5.36D-09 MaxDP=2.92D-07 DE=-1.12D-11 OVMax= 2.90D-07

 Error on total polarization charges =  0.01238
 SCF Done:  E(RB-P86) =  -401.086730026     A.U. after   14 cycles
            NFock= 14  Conv=0.54D-08     -V/T= 2.0028
 KE= 3.999798337190D+02 PE=-1.747129013656D+03 EE= 5.402075210094D+02
 Leave Link  502 at Mon Feb 22 21:11:59 2021, MaxMem=   104857600 cpu:             319.0 elap:              10.2
 (Enter /sw/arch/RedHatEnterpriseServer7/EB_production/2019/software/Gaussian/g16.c01/l601.exe)
 Copying SCF densities to generalized density rwf, IOpCl= 0 IROHF=0.

 **********************************************************************

            Population analysis using the SCF Density.

 **********************************************************************

 Orbital symmetries:
       Occupied  (A) (A) (A) (A) (A) (A) (A) (A) (A) (A) (A) (A)
                 (A) (A) (A) (A) (A) (A) (A) (A) (A) (A) (A) (A)
                 (A) (A) (A) (A) (A) (A) (A) (A)
       Virtual   (A) (A) (A) (A) (A) (A) (A) (A) (A) (A) (A) (A)
                 (A) (A) (A) (A) (A) (A) (A) (A) (A) (A) (A) (A)
                 (A) (A) (A) (A) (A) (A) (A) (A) (A) (A) (A) (A)
                 (A) (A) (A) (A) (A) (A) (A) (A) (A) (A) (A) (A)
                 (A) (A) (A) (A) (A) (A) (A) (A) (A) (A) (A) (A)
                 (A) (A) (A) (A) (A) (A) (A) (A) (A) (A) (A) (A)
                 (A) (A) (A) (A) (A) (A) (A) (A) (A) (A) (A) (A)
                 (A) (A) (A) (A) (A) (A) (A) (A) (A) (A) (A) (A)
                 (A) (A) (A) (A) (A) (A) (A) (A) (A) (A) (A) (A)
                 (A) (A) (A) (A) (A) (A) (A) (A) (A) (A) (A) (A)
                 (A) (A) (A) (A) (A) (A) (A) (A) (A) (A) (A) (A)
                 (A) (A) (A) (A) (A) (A) (A) (A) (A) (A) (A) (A)
                 (A) (A) (A) (A) (A) (A) (A) (A) (A) (A) (A) (A)
                 (A) (A) (A) (A) (A) (A) (A) (A) (A) (A) (A) (A)
                 (A) (A) (A) (A) (A) (A) (A) (A) (A) (A) (A) (A)
                 (A)
 The electronic state is 1-A.
 Alpha  occ. eigenvalues --  -18.73382 -14.01934  -9.99900  -9.92670  -9.91689
 Alpha  occ. eigenvalues --   -9.91380  -9.91102  -9.90951  -9.90892  -0.95454
 Alpha  occ. eigenvalues --   -0.83912  -0.79449  -0.71111  -0.69538  -0.60676
 Alpha  occ. eigenvalues --   -0.57055  -0.54005  -0.51817  -0.48304  -0.45723
 Alpha  occ. eigenvalues --   -0.42110  -0.40642  -0.39493  -0.39110  -0.37145
 Alpha  occ. eigenvalues --   -0.33560  -0.33256  -0.32038  -0.24901  -0.24698
 Alpha  occ. eigenvalues --   -0.23850  -0.22085
 Alpha virt. eigenvalues --   -0.09338  -0.05986   0.00975   0.03096   0.05989
 Alpha virt. eigenvalues --    0.07479   0.08651   0.09483   0.10070   0.10201
 Alpha virt. eigenvalues --    0.11608   0.14257   0.15580   0.16875   0.17195
 Alpha virt. eigenvalues --    0.17966   0.18940   0.20162   0.20871   0.21077
 Alpha virt. eigenvalues --    0.21580   0.22147   0.23839   0.26319   0.26874
 Alpha virt. eigenvalues --    0.27824   0.28976   0.30190   0.31733   0.33130
 Alpha virt. eigenvalues --    0.33403   0.35184   0.35739   0.37938   0.38321
 Alpha virt. eigenvalues --    0.38850   0.39538   0.41029   0.41327   0.42542
 Alpha virt. eigenvalues --    0.44646   0.45226   0.46021   0.46573   0.47501
 Alpha virt. eigenvalues --    0.48261   0.51540   0.52423   0.54650   0.55418
 Alpha virt. eigenvalues --    0.57002   0.60962   0.61708   0.62345   0.65242
 Alpha virt. eigenvalues --    0.65543   0.67554   0.73505   0.74689   0.75591
 Alpha virt. eigenvalues --    0.77265   0.86929   0.88494   1.09500   1.11490
 Alpha virt. eigenvalues --    1.16203   1.16708   1.17078   1.17715   1.18790
 Alpha virt. eigenvalues --    1.19341   1.22048   1.22437   1.23453   1.23644
 Alpha virt. eigenvalues --    1.25590   1.30032   1.32356   1.34110   1.37390
 Alpha virt. eigenvalues --    1.37531   1.37877   1.38584   1.38938   1.39364
 Alpha virt. eigenvalues --    1.41611   1.42451   1.43615   1.44906   1.45491
 Alpha virt. eigenvalues --    1.46307   1.46854   1.47416   1.51880   1.56136
 Alpha virt. eigenvalues --    1.56533   1.59997   1.68812   1.70386   1.72538
 Alpha virt. eigenvalues --    1.73470   1.73935   1.75352   1.78841   1.79991
 Alpha virt. eigenvalues --    1.80033   1.82414   1.83610   1.84543   1.87206
 Alpha virt. eigenvalues --    1.90276   1.93049   1.93537   1.97723   1.98274
 Alpha virt. eigenvalues --    2.00256   2.01583   2.05601   2.12893   2.14114
 Alpha virt. eigenvalues --    2.16959   2.18649   2.19382   2.21973   2.23599
 Alpha virt. eigenvalues --    2.24283   2.25652   2.29327   2.30547   2.35836
 Alpha virt. eigenvalues --    2.41580   2.44817   2.47182   2.47616   2.48097
 Alpha virt. eigenvalues --    2.51883   2.52420   2.52681   2.53719   2.54824
 Alpha virt. eigenvalues --    2.59447   2.60238   2.61188   2.64138   2.64469
 Alpha virt. eigenvalues --    2.67448   2.70711   2.73273   2.73780   2.75078
 Alpha virt. eigenvalues --    2.84473   2.88799   2.90847   2.99488   3.00786
 Alpha virt. eigenvalues --    3.04449   3.05759   3.06607   3.07157   3.07403
 Alpha virt. eigenvalues --    3.10479   3.16807   3.28194   3.31237   3.32258
 Alpha virt. eigenvalues --    3.36989   3.42356   3.46658   3.70536   3.75792
 Alpha virt. eigenvalues --    3.91450   4.17097  21.05688  21.54098  21.63656
 Alpha virt. eigenvalues --   21.79189  21.84907  21.91271  21.97149  31.45277
 Alpha virt. eigenvalues --   43.17895
          Condensed to atoms (all electrons):
               1          2          3          4          5          6
     1  N    6.534630   0.461041  -0.154850  -0.254233   0.025376  -0.000962
     2  C    0.461041   5.368531   0.732652  -0.638895  -0.084339   0.031052
     3  O   -0.154850   0.732652   8.003964  -0.252668   0.032639   0.002189
     4  C   -0.254233  -0.638895  -0.252668   6.893869   0.323358   0.001050
     5  C    0.025376  -0.084339   0.032639   0.323358   5.216076   0.363585
     6  C   -0.000962   0.031052   0.002189   0.001050   0.363585   5.091336
     7  C    0.000501   0.013482   0.001008  -0.107974  -0.018786   0.411327
     8  C    0.000770  -0.028322  -0.002131   0.055917  -0.084162  -0.006175
     9  C    0.024796   0.084482   0.014898   0.098942  -0.042414  -0.111908
    10  H    0.359792  -0.023961   0.005691   0.024117  -0.000649   0.000060
    11  H    0.339029  -0.030228   0.007640   0.022725  -0.002827  -0.000014
    12  H    0.002545  -0.014145   0.027033  -0.083775   0.439968  -0.050368
    13  H   -0.000014  -0.002477  -0.000249   0.016998  -0.049481   0.434237
    14  H   -0.000001   0.000102   0.000002  -0.003191   0.014631  -0.059390
    15  H    0.000014  -0.001551  -0.000004   0.015658  -0.000422   0.011640
    16  H    0.006807  -0.024762   0.000187  -0.058839   0.008899  -0.000580
               7          8          9         10         11         12
     1  N    0.000501   0.000770   0.024796   0.359792   0.339029   0.002545
     2  C    0.013482  -0.028322   0.084482  -0.023961  -0.030228  -0.014145
     3  O    0.001008  -0.002131   0.014898   0.005691   0.007640   0.027033
     4  C   -0.107974   0.055917   0.098942   0.024117   0.022725  -0.083775
     5  C   -0.018786  -0.084162  -0.042414  -0.000649  -0.002827   0.439968
     6  C    0.411327  -0.006175  -0.111908   0.000060  -0.000014  -0.050368
     7  C    5.065145   0.421302  -0.003155  -0.000012  -0.000203   0.014751
     8  C    0.421302   5.045949   0.366862   0.000052   0.001987  -0.003955
     9  C   -0.003155   0.366862   5.277400  -0.001608  -0.002607   0.016646
    10  H   -0.000012   0.000052  -0.001608   0.385703  -0.017138  -0.000054
    11  H   -0.000203   0.001987  -0.002607  -0.017138   0.412545  -0.000288
    12  H    0.014751  -0.003955   0.016646  -0.000054  -0.000288   0.512641
    13  H   -0.060779   0.013878  -0.002003   0.000000   0.000006  -0.006610
    14  H    0.438216  -0.059047   0.017926  -0.000000  -0.000001  -0.000145
    15  H   -0.057033   0.433717  -0.051687   0.000000   0.000037   0.000005
    16  H    0.009575  -0.013592   0.408582   0.000137   0.003775  -0.000006
              13         14         15         16
     1  N   -0.000014  -0.000001   0.000014   0.006807
     2  C   -0.002477   0.000102  -0.001551  -0.024762
     3  O   -0.000249   0.000002  -0.000004   0.000187
     4  C    0.016998  -0.003191   0.015658  -0.058839
     5  C   -0.049481   0.014631  -0.000422   0.008899
     6  C    0.434237  -0.059390   0.011640  -0.000580
     7  C   -0.060779   0.438216  -0.057033   0.009575
     8  C    0.013878  -0.059047   0.433717  -0.013592
     9  C   -0.002003   0.017926  -0.051687   0.408582
    10  H    0.000000  -0.000000   0.000000   0.000137
    11  H    0.000006  -0.000001   0.000037   0.003775
    12  H   -0.006610  -0.000145   0.000005  -0.000006
    13  H    0.511244  -0.006024  -0.000161   0.000032
    14  H   -0.006024   0.509222  -0.005697  -0.000282
    15  H   -0.000161  -0.005697   0.509580  -0.005084
    16  H    0.000032  -0.000282  -0.005084   0.517349
 Mulliken charges:
               1
     1  N   -0.345241
     2  C    0.157338
     3  O   -0.418001
     4  C   -0.053059
     5  C   -0.141451
     6  C   -0.117078
     7  C   -0.127366
     8  C   -0.143050
     9  C   -0.095151
    10  H    0.267868
    11  H    0.265561
    12  H    0.145755
    13  H    0.151405
    14  H    0.153680
    15  H    0.150987
    16  H    0.147803
 Sum of Mulliken charges =  -0.00000
 Mulliken charges with hydrogens summed into heavy atoms:
               1
     1  N    0.188188
     2  C    0.157338
     3  O   -0.418001
     4  C   -0.053059
     5  C    0.004303
     6  C    0.034327
     7  C    0.026314
     8  C    0.007938
     9  C    0.052652
 Electronic spatial extent (au):  <R**2>=           1197.6582
 Charge=             -0.0000 electrons
 Dipole moment (field-independent basis, Debye):
    X=              2.4940    Y=              4.7956    Z=              0.2198  Tot=              5.4098
 Quadrupole moment (field-independent basis, Debye-Ang):
   XX=            -46.3382   YY=            -47.2405   ZZ=            -56.3166
   XY=            -11.8627   XZ=             -0.5261   YZ=             -0.1753
 Traceless Quadrupole moment (field-independent basis, Debye-Ang):
   XX=              3.6269   YY=              2.7246   ZZ=             -6.3515
   XY=            -11.8627   XZ=             -0.5261   YZ=             -0.1753
 Octapole moment (field-independent basis, Debye-Ang**2):
  XXX=             -0.8076  YYY=             15.7753  ZZZ=             -0.0860  XYY=              5.5327
  XXY=             30.9906  XXZ=              1.3031  XZZ=             -7.0399  YZZ=             -0.7065
  YYZ=              0.8608  XYZ=             -0.2570
 Hexadecapole moment (field-independent basis, Debye-Ang**3):
 XXXX=           -951.9504 YYYY=           -360.5829 ZZZZ=            -62.4766 XXXY=            -88.7410
 XXXZ=             -3.8506 YYYX=            -34.1051 YYYZ=             -0.1123 ZZZX=              0.1285
 ZZZY=              0.3191 XXYY=           -239.9547 XXZZ=           -213.3708 YYZZ=            -84.6151
 XXYZ=             -0.3755 YYXZ=             -1.7175 ZZXY=              1.0921
 N-N= 4.058549289020D+02 E-N=-1.747129014285D+03  KE= 3.999798337190D+02
 No NMR shielding tensors so no spin-rotation constants.
 Leave Link  601 at Mon Feb 22 21:12:00 2021, MaxMem=   104857600 cpu:               5.9 elap:               0.2
 (Enter /sw/arch/RedHatEnterpriseServer7/EB_production/2019/software/Gaussian/g16.c01/l701.exe)
 ... and contract with generalized density number  0.
 Compute integral first derivatives.
 R6Disp: Adding Grimme-D3 dispersion energy 1st derivatives to the gradient.
 PrsmSu:  requested number of processors reduced to:  29 ShMem   1 Linda.
 D1PCM: PCM CHGder 1st derivatives, ID1Alg=3 FixD1E=F DoIter=F DoCFld=F I1PDM=0.
 GePol: Maximum number of non-zero 1st derivatives   =     202
 CoulSu:  requested number of processors reduced to:  29 ShMem   1 Linda.
 CoulSu:  requested number of processors reduced to:  30 ShMem   1 Linda.
 Leave Link  701 at Mon Feb 22 21:12:00 2021, MaxMem=   104857600 cpu:              22.5 elap:               0.8
 (Enter /sw/arch/RedHatEnterpriseServer7/EB_production/2019/software/Gaussian/g16.c01/l702.exe)
 L702 exits ... SP integral derivatives will be done elsewhere.
 Leave Link  702 at Mon Feb 22 21:12:01 2021, MaxMem=   104857600 cpu:               0.8 elap:               0.1
 (Enter /sw/arch/RedHatEnterpriseServer7/EB_production/2019/software/Gaussian/g16.c01/l703.exe)
 Integral derivatives from FoFJK, PRISM(SPDF).
 Compute integral first derivatives, UseDBF=F ICtDFT=           0.
 Calling FoFJK, ICntrl=      2527 FMM=F ISym2X=0 I1Cent= 0 IOpClX= 0 NMat=1 NMatS=1 NMatT=0.
 FoFJK:  IHMeth= 1 ICntrl=    2527 DoSepK=F KAlg= 0 I1Cent=           0 FoldK=F
 IRaf=         0 NMat=       1 IRICut=       1 DoRegI=T DoRafI=F ISym2E= 0 IDoP0=0 IntGTp=1.
 FoFCou: FMM=F IPFlag=           0 FMFlag=      100000 FMFlg1=         800
         NFxFlg=           0 DoJE=F BraDBF=F KetDBF=F FulRan=T
         wScrn=  0.000000 ICntrl=      2527 IOpCl=  0 I1Cent=           0 NGrid=           0
         NMat0=    1 NMatS0=      1 NMatT0=    0 NMatD0=    1 NMtDS0=    0 NMtDT0=    0
 Symmetry not used in FoFCou.
 Leave Link  703 at Mon Feb 22 21:12:02 2021, MaxMem=   104857600 cpu:              40.9 elap:               1.4
 (Enter /sw/arch/RedHatEnterpriseServer7/EB_production/2019/software/Gaussian/g16.c01/l716.exe)
 Dipole        = 9.81217999D-01 1.88674289D+00 8.64767924D-02
 ***** Axes restored to original set *****
 -------------------------------------------------------------------
 Center     Atomic                   Forces (Hartrees/Bohr)
 Number     Number              X              Y              Z
 -------------------------------------------------------------------
      1        7           0.039904468   -0.008772981    0.001408595
      2        6          -0.059565301   -0.028635745   -0.002823408
      3        8           0.005934317   -0.014794153   -0.000207499
      4        6           0.053520467    0.011142623    0.002463144
      5        6           0.028867316    0.047025390   -0.000710843
      6        6          -0.033852078    0.053645412   -0.004283764
      7        6          -0.058165726    0.000914458   -0.002219020
      8        6          -0.032950678   -0.051229538    0.000230144
      9        6           0.032285275   -0.051783484    0.004571736
     10        1          -0.042066550   -0.004853659   -0.002374262
     11        1           0.013662948    0.042868190    0.002143139
     12        1          -0.029608987   -0.044498799    0.000727796
     13        1           0.025711836   -0.047968672    0.003260529
     14        1           0.054672300    0.000000852    0.002500457
     15        1           0.027215070    0.048336192   -0.001023973
     16        1          -0.025564676    0.048603912   -0.003662771
 -------------------------------------------------------------------
 Cartesian Forces:  Max     0.059565301 RMS     0.030952942
 Leave Link  716 at Mon Feb 22 21:12:02 2021, MaxMem=   104857600 cpu:               0.9 elap:               0.1
 (Enter /sw/arch/RedHatEnterpriseServer7/EB_production/2019/software/Gaussian/g16.c01/l103.exe)

 GradGradGradGradGradGradGradGradGradGradGradGradGradGradGradGradGradGrad
 Berny optimization.
 FormGI is forming the generalized inverse of G from B-inverse, IUseBI=4.
 Internal  Forces:  Max     0.055474422 RMS     0.017810176
 Search for a local minimum.
 Step number   1 out of a maximum of   82
 All quantities printed in internal units (Hartrees-Bohrs-Radians)
 RMS Force = .17810D-01 SwitMx=.10000D-02 MixMth= 1
 Mixed Optimization -- RFO/linear search
 Second derivative matrix not updated -- first step.
 ITU=  0
     Eigenvalues ---    0.01750   0.01812   0.01858   0.01901   0.01918
     Eigenvalues ---    0.01966   0.02005   0.02009   0.02018   0.02027
     Eigenvalues ---    0.02040   0.02365   0.02365   0.16000   0.16000
     Eigenvalues ---    0.16000   0.16000   0.16000   0.16000   0.16000
     Eigenvalues ---    0.22000   0.22000   0.23463   0.25000   0.25000
     Eigenvalues ---    0.25000   0.39893   0.40067   0.41623   0.43048
     Eigenvalues ---    0.43762   0.43893   0.43919   0.43989   0.44015
     Eigenvalues ---    0.44061   0.44393   0.44776   0.53306   0.53420
     Eigenvalues ---    0.55216   0.82081
 RFO step:  Lambda=-4.80242306D-02 EMin= 1.74969251D-02
 Linear search not attempted -- first point.
 Maximum step size (   0.300) exceeded in Quadratic search.
    -- Step size scaled by   0.924
 Iteration  1 RMS(Cart)=  0.03516099 RMS(Int)=  0.00050915
 Iteration  2 RMS(Cart)=  0.00101755 RMS(Int)=  0.00000851
 Iteration  3 RMS(Cart)=  0.00000030 RMS(Int)=  0.00000850
 ITry= 1 IFail=0 DXMaxC= 1.30D-01 DCOld= 1.00D+10 DXMaxT= 3.00D-01 DXLimC= 3.00D+00 Rises=F
 Variable       Old X    -DE/DX   Delta X   Delta X   Delta X     New X
                                 (Linear)    (Quad)   (Total)
    R1        2.54941   0.01803   0.00000   0.02777   0.02777   2.57717
    R2        1.83369   0.04235   0.00000   0.06736   0.06736   1.90105
    R3        1.83264   0.04459   0.00000   0.07078   0.07078   1.90342
    R4        2.36812   0.00956   0.00000   0.01017   0.01017   2.37830
    R5        2.69405   0.04217   0.00000   0.08394   0.08394   2.77800
    R6        2.68351  -0.01069   0.00000  -0.02123  -0.02122   2.66229
    R7        2.68077  -0.00383   0.00000  -0.00759  -0.00758   2.67319
    R8        2.66012  -0.00910   0.00000  -0.01728  -0.01728   2.64283
    R9        1.93441   0.05322   0.00000   0.10128   0.10128   2.03568
   R10        2.65452  -0.00188   0.00000  -0.00338  -0.00339   2.65113
   R11        1.93252   0.05450   0.00000   0.10337   0.10337   2.03589
   R12        2.65427  -0.00349   0.00000  -0.00619  -0.00620   2.64808
   R13        1.93283   0.05473   0.00000   0.10386   0.10386   2.03669
   R14        2.65963  -0.00834   0.00000  -0.01547  -0.01547   2.64416
   R15        1.93081   0.05547   0.00000   0.10492   0.10492   2.03573
   R16        1.93136   0.05504   0.00000   0.10419   0.10419   2.03555
    A1        2.09242  -0.00660   0.00000  -0.02932  -0.02932   2.06310
    A2        2.10572   0.00912   0.00000   0.04053   0.04053   2.14625
    A3        2.08505  -0.00252   0.00000  -0.01121  -0.01121   2.07384
    A4        2.01054   0.02671   0.00000   0.08284   0.08284   2.09338
    A5        2.15493  -0.02323   0.00000  -0.07202  -0.07202   2.08290
    A6        2.11771  -0.00349   0.00000  -0.01081  -0.01081   2.10690
    A7        2.11139  -0.01128   0.00000  -0.03468  -0.03469   2.07670
    A8        2.11757   0.00721   0.00000   0.02265   0.02264   2.14021
    A9        2.05422   0.00406   0.00000   0.01203   0.01205   2.06627
   A10        2.11503  -0.00201   0.00000  -0.00763  -0.00763   2.10740
   A11        2.10892  -0.00382   0.00000  -0.01762  -0.01762   2.09129
   A12        2.05924   0.00583   0.00000   0.02525   0.02525   2.08449
   A13        2.09591   0.00085   0.00000   0.00308   0.00307   2.09898
   A14        2.09770  -0.00198   0.00000  -0.00846  -0.00845   2.08924
   A15        2.08957   0.00113   0.00000   0.00538   0.00538   2.09496
   A16        2.08935  -0.00021   0.00000   0.00033   0.00031   2.08966
   A17        2.09789   0.00020   0.00000   0.00025   0.00025   2.09814
   A18        2.09595   0.00001   0.00000  -0.00058  -0.00057   2.09538
   A19        2.09788  -0.00134   0.00000  -0.00345  -0.00346   2.09442
   A20        2.09302   0.00142   0.00000   0.00506   0.00506   2.09808
   A21        2.09229  -0.00008   0.00000  -0.00161  -0.00161   2.09068
   A22        2.11394  -0.00135   0.00000  -0.00434  -0.00433   2.10962
   A23        2.11177   0.00052   0.00000   0.00147   0.00146   2.11323
   A24        2.05747   0.00083   0.00000   0.00287   0.00286   2.06033
    D1       -0.01226   0.00003   0.00000   0.00061   0.00062  -0.01164
    D2        3.13339  -0.00004   0.00000  -0.00066  -0.00067   3.13272
    D3        3.12773  -0.00008   0.00000  -0.00082  -0.00081   3.12692
    D4       -0.00981  -0.00015   0.00000  -0.00209  -0.00211  -0.01191
    D5        3.07327   0.00001   0.00000  -0.00005  -0.00007   3.07320
    D6       -0.06939  -0.00008   0.00000  -0.00126  -0.00127  -0.07067
    D7       -0.06402  -0.00013   0.00000  -0.00159  -0.00158  -0.06561
    D8        3.07650  -0.00021   0.00000  -0.00281  -0.00279   3.07371
    D9       -3.14159  -0.00006   0.00000  -0.00087  -0.00085   3.14074
   D10       -0.00062  -0.00008   0.00000  -0.00119  -0.00117  -0.00179
   D11        0.00103   0.00002   0.00000   0.00029   0.00029   0.00133
   D12       -3.14118  -0.00000   0.00000  -0.00003  -0.00003  -3.14121
   D13        3.13942   0.00015   0.00000   0.00208   0.00210   3.14152
   D14       -0.00508   0.00000   0.00000   0.00002   0.00004  -0.00504
   D15       -0.00321   0.00006   0.00000   0.00088   0.00088  -0.00233
   D16        3.13547  -0.00009   0.00000  -0.00118  -0.00118   3.13429
   D17       -0.00277   0.00002   0.00000   0.00030   0.00030  -0.00247
   D18        3.14012  -0.00001   0.00000  -0.00021  -0.00021   3.13991
   D19        3.13943   0.00005   0.00000   0.00063   0.00064   3.14006
   D20       -0.00087   0.00001   0.00000   0.00012   0.00013  -0.00074
   D21        0.00660  -0.00015   0.00000  -0.00205  -0.00205   0.00454
   D22       -3.13160  -0.00016   0.00000  -0.00221  -0.00221  -3.13382
   D23       -3.13629  -0.00011   0.00000  -0.00155  -0.00155  -3.13784
   D24        0.00870  -0.00013   0.00000  -0.00171  -0.00171   0.00699
   D25       -0.00876   0.00024   0.00000   0.00324   0.00323  -0.00552
   D26        3.13492   0.00019   0.00000   0.00254   0.00255   3.13747
   D27        3.12945   0.00025   0.00000   0.00340   0.00339   3.13284
   D28       -0.01006   0.00020   0.00000   0.00270   0.00271  -0.00735
   D29        0.00714  -0.00020   0.00000  -0.00268  -0.00268   0.00446
   D30       -3.13163  -0.00005   0.00000  -0.00069  -0.00068  -3.13231
   D31       -3.13654  -0.00015   0.00000  -0.00198  -0.00198  -3.13853
   D32        0.00788   0.00000   0.00000   0.00001   0.00002   0.00789
         Item               Value     Threshold  Converged?
 Maximum Force            0.055474     0.000450     NO 
 RMS     Force            0.017810     0.000300     NO 
 Maximum Displacement     0.129891     0.001800     NO 
 RMS     Displacement     0.035191     0.001200     NO 
 Predicted change in Energy=-2.603715D-02
 Lowest energy point so far.  Saving SCF results.
 GradGradGradGradGradGradGradGradGradGradGradGradGradGradGradGradGradGrad

 Leave Link  103 at Mon Feb 22 21:12:02 2021, MaxMem=   104857600 cpu:               1.3 elap:               0.1
 (Enter /sw/arch/RedHatEnterpriseServer7/EB_production/2019/software/Gaussian/g16.c01/l202.exe)
                          Input orientation:                          
 ---------------------------------------------------------------------
 Center     Atomic      Atomic             Coordinates (Angstroms)
 Number     Number       Type             X           Y           Z
 ---------------------------------------------------------------------
      1          7           0       -2.834343    2.322775   -0.154971
      2          6           0       -2.132731    1.153318   -0.151581
      3          8           0       -2.743561    0.054164   -0.203275
      4          6           0       -0.664815    1.194138   -0.083678
      5          6           0        0.048556   -0.017586    0.003544
      6          6           0        1.445543   -0.021688    0.069034
      7          6           0        2.157995    1.186637    0.045624
      8          6           0        1.463908    2.401071   -0.038275
      9          6           0        0.066276    2.404975   -0.104990
     10          1           0       -3.837711    2.275144   -0.209746
     11          1           0       -2.393258    3.226795   -0.102690
     12          1           0       -0.484948   -0.953271    0.021084
     13          1           0        1.974058   -0.958032    0.136948
     14          1           0        3.234886    1.182243    0.088908
     15          1           0        2.002985    3.333633   -0.052957
     16          1           0       -0.434683    3.355803   -0.177499
 ---------------------------------------------------------------------
                    Distance matrix (angstroms):
                    1          2          3          4          5
     1  N    0.000000
     2  C    1.363782   0.000000
     3  O    2.270940   1.258540   0.000000
     4  C    2.446581   1.470053   2.373821   0.000000
     5  C    3.716655   2.480543   2.800685   1.408822   0.000000
     6  C    4.885090   3.772712   4.198630   2.440320   1.398527
     7  C    5.123914   4.295386   5.036834   2.825780   2.429333
     8  C    4.300548   3.808615   4.820580   2.447491   2.802655
     9  C    2.902214   2.530702   3.664854   1.414594   2.425056
    10  H    1.005991   2.041772   2.475875   3.354362   4.517209
    11  H    1.007244   2.090352   3.193496   2.668253   4.061988
    12  H    4.035236   2.680060   2.483263   2.157474   1.077238
    13  H    5.828347   4.626744   4.836964   3.412354   2.147043
    14  H    6.180277   5.373080   6.090957   3.903535   3.405815
    15  H    4.942872   4.676286   5.771240   3.419874   3.879904
    16  H    2.612666   2.781184   4.028945   2.175904   3.412631
                    6          7          8          9         10
     6  C    0.000000
     7  C    1.402920   0.000000
     8  C    2.425204   1.401302   0.000000
     9  C    2.796668   2.425350   1.399229   0.000000
    10  H    5.767662   6.099062   5.305886   3.907550   0.000000
    11  H    5.031751   4.989804   3.945085   2.593203   1.733074
    12  H    2.144048   3.400729   3.879842   3.405519   4.660147
    13  H    1.077349   2.154478   3.402136   3.874014   6.659601
    14  H    2.156755   1.077769   2.153620   3.401875   7.162769
    15  H    3.403498   2.154841   1.077261   2.148477   5.937905
    16  H    3.873431   3.387779   2.129682   1.077168   3.570640
                   11         12         13         14         15
    11  H    0.000000
    12  H    4.596729   0.000000
    13  H    6.053400   2.461738   0.000000
    14  H    5.991068   4.289776   2.484506   0.000000
    15  H    4.397822   4.957100   4.295962   2.483180   0.000000
    16  H    1.964244   4.313940   4.950765   4.273297   2.440948
                   16
    16  H    0.000000
 Stoichiometry    C7H7NO
 Framework group  C1[X(C7H7NO)]
 Deg. of freedom    42
 Full point group                 C1      NOp   1
 RotChk:  IX=0 Diff= 1.71D-02
 Largest Abelian subgroup         C1      NOp   1
 Largest concise Abelian subgroup C1      NOp   1
                         Standard orientation:                         
 ---------------------------------------------------------------------
 Center     Atomic      Atomic             Coordinates (Angstroms)
 Number     Number       Type             X           Y           Z
 ---------------------------------------------------------------------
      1          7           0       -2.443512    1.021012    0.049539
      2          6           0       -1.702987   -0.122866   -0.005829
      3          8           0       -2.277684   -1.241396   -0.056193
      4          6           0       -0.235748   -0.032005   -0.002327
      5          6           0        0.521753   -1.219544    0.024511
      6          6           0        1.919599   -1.176006    0.027700
      7          6           0        2.588633    0.056825    0.001108
      8          6           0        1.850442    1.247677   -0.023206
      9          6           0        0.451903    1.203945   -0.027593
     10          1           0       -3.446123    0.939378    0.038330
     11          1           0       -2.031605    1.938601    0.103440
     12          1           0        0.021815   -2.173554    0.043707
     13          1           0        2.482275   -2.094472    0.049964
     14          1           0        3.665901    0.089315   -0.003655
     15          1           0        2.356180    2.198699   -0.039868
     16          1           0       -0.083963    2.137952   -0.055331
 ---------------------------------------------------------------------
 Rotational constants (GHZ):           3.7931236           1.2171427           0.9219272
 Leave Link  202 at Mon Feb 22 21:12:02 2021, MaxMem=   104857600 cpu:               0.5 elap:               0.0
 (Enter /sw/arch/RedHatEnterpriseServer7/EB_production/2019/software/Gaussian/g16.c01/l301.exe)
 Standard basis: TZVP (5D, 7F)
 Ernie: Thresh=  0.10000D-02 Tol=  0.10000D-05 Strict=F.
 There are   222 symmetry adapted cartesian basis functions of A   symmetry.
 There are   213 symmetry adapted basis functions of A   symmetry.
   213 basis functions,   371 primitive gaussians,   222 cartesian basis functions
    32 alpha electrons       32 beta electrons
       nuclear repulsion energy       403.2567714606 Hartrees.
 IExCor=  404 DFT=T Ex=B Corr=P86 ExCW=0 ScaHFX=  0.000000
 ScaDFX=  1.000000  1.000000  1.000000  1.000000 ScalE2=  1.000000  1.000000
 IRadAn=      5 IRanWt=     -1 IRanGd=            0 ICorTp=0 IEmpDi=131
 NAtoms=   16 NActive=   16 NUniq=   16 SFac= 1.00D+00 NAtFMM=   60 NAOKFM=F Big=F
 Integral buffers will be    131072 words long.
 Raffenetti 2 integral format.
 Two-electron integral symmetry is turned on.
 R6Disp:  Grimme-D3 Dispersion energy=       -0.0117375042 Hartrees.
 Nuclear repulsion after empirical dispersion term =      403.2450339564 Hartrees.
 ------------------------------------------------------------------------------
 Polarizable Continuum Model (PCM)
 =================================
 Model                : PCM.
 Atomic radii         : UFF (Universal Force Field).
 Polarization charges : Total charges.
 Charge compensation  : None.
 Solution method      : On-the-fly selection.
 Cavity type          : Scaled VdW (van der Waals Surface) (Alpha=1.100).
 Cavity algorithm     : GePol (No added spheres)
                        Default sphere list used, NSphG=   16.
                        Lebedev-Laikov grids with approx.  5.0 points / Ang**2.
                        Smoothing algorithm: York/Karplus (Gamma=1.0000).
                        Polarization charges: spherical gaussians, with
                                              point-specific exponents (IZeta= 3).
                        Self-potential: point-specific (ISelfS= 7).
                        Self-field    : sphere-specific E.n sum rule (ISelfD= 2).
 1st derivatives      : Analytical E(r).r(x)/FMM algorithm (CHGder, D1EAlg=3).
                        Cavity 1st derivative terms included.
 Solvent              : Water, Eps=  78.355300 Eps(inf)=   1.777849
 ------------------------------------------------------------------------------
 Spheres list:
 ISph  on   Nord     Re0    Alpha      Xe            Ye            Ze
    1   N      1    1.8300  1.100     -2.443512      1.021012      0.049539
    2   C      2    1.9255  1.100     -1.702987     -0.122866     -0.005829
    3   O      3    1.7500  1.100     -2.277684     -1.241396     -0.056193
    4   C      4    1.9255  1.100     -0.235748     -0.032005     -0.002327
    5   C      5    1.9255  1.100      0.521753     -1.219544      0.024511
    6   C      6    1.9255  1.100      1.919599     -1.176006      0.027700
    7   C      7    1.9255  1.100      2.588633      0.056825      0.001108
    8   C      8    1.9255  1.100      1.850442      1.247677     -0.023206
    9   C      9    1.9255  1.100      0.451903      1.203945     -0.027593
   10   H     10    1.4430  1.100     -3.446123      0.939378      0.038330
   11   H     11    1.4430  1.100     -2.031605      1.938601      0.103440
   12   H     12    1.4430  1.100      0.021815     -2.173554      0.043707
   13   H     13    1.4430  1.100      2.482275     -2.094472      0.049964
   14   H     14    1.4430  1.100      3.665901      0.089315     -0.003655
   15   H     15    1.4430  1.100      2.356180      2.198699     -0.039868
   16   H     16    1.4430  1.100     -0.083963      2.137952     -0.055331
 ------------------------------------------------------------------------------
 GePol: Number of generator spheres                  =      16
 GePol: Total number of spheres                      =      16
 GePol: Number of exposed spheres                    =      16 (100.00%)
 GePol: Number of points                             =    1388
 GePol: Average weight of points                     =       0.13
 GePol: Minimum weight of points                     =   0.35D-11
 GePol: Maximum weight of points                     =    0.20577
 GePol: Number of points with low weight             =      54
 GePol: Fraction of low-weight points (<1% of avg)   =       3.89%
 GePol: Cavity surface area                          =    182.345 Ang**2
 GePol: Cavity volume                                =    180.245 Ang**3
 Leave Link  301 at Mon Feb 22 21:12:02 2021, MaxMem=   104857600 cpu:               1.9 elap:               0.1
 (Enter /sw/arch/RedHatEnterpriseServer7/EB_production/2019/software/Gaussian/g16.c01/l302.exe)
 NPDir=0 NMtPBC=     1 NCelOv=     1 NCel=       1 NClECP=     1 NCelD=      1
         NCelK=      1 NCelE2=     1 NClLst=     1 CellRange=     0.0.
 One-electron integrals computed using PRISM.
 One-electron integral symmetry used in STVInt
 PrsmSu:  requested number of processors reduced to:  29 ShMem   1 Linda.
 NBasis=   213 RedAO= T EigKep=  9.81D-06  NBF=   213
 NBsUse=   213 1.00D-06 EigRej= -1.00D+00 NBFU=   213
 Precomputing XC quadrature grid using
 IXCGrd= 4 IRadAn=           5 IRanWt=          -1 IRanGd=           0 AccXCQ= 0.00D+00.
 Generated NRdTot=       0 NPtTot=           0 NUsed=           0 NTot=          32
 NSgBfM=   221   221   221   221   221 MxSgAt=    16 MxSgA2=    16.
 Leave Link  302 at Mon Feb 22 21:12:03 2021, MaxMem=   104857600 cpu:               6.2 elap:               0.2
 (Enter /sw/arch/RedHatEnterpriseServer7/EB_production/2019/software/Gaussian/g16.c01/l303.exe)
 DipDrv:  MaxL=1.
 Leave Link  303 at Mon Feb 22 21:12:05 2021, MaxMem=   104857600 cpu:               2.3 elap:               0.1
 (Enter /sw/arch/RedHatEnterpriseServer7/EB_production/2019/software/Gaussian/g16.c01/l401.exe)
 Initial guess from the checkpoint file:  "KXDAEFPNCMNJSK-UHFFFAOYSA-N.chk"
 B after Tr=     0.000000    0.000000    0.000000
         Rot=    0.999993    0.000402    0.000005    0.003656 Ang=   0.42 deg.
 Guess basis will be translated and rotated to current coordinates.
 JPrj=2 DoOrth=T DoCkMO=T.
 Generating alternative initial guess.
 ExpMin= 9.52D-02 ExpMax= 2.70D+04 ExpMxC= 9.22D+02 IAcc=3 IRadAn=         5 AccDes= 0.00D+00
 Harris functional with IExCor=  404 and IRadAn=       5 diagonalized for initial guess.
 HarFok:  IExCor=  404 AccDes= 0.00D+00 IRadAn=         5 IDoV= 1 UseB2=F ITyADJ=14
 ICtDFT=  3500011 ScaDFX=  1.000000  1.000000  1.000000  1.000000
 FoFCou: FMM=F IPFlag=           0 FMFlag=      100000 FMFlg1=           0
         NFxFlg=           0 DoJE=T BraDBF=F KetDBF=T FulRan=T
         wScrn=  0.000000 ICntrl=       500 IOpCl=  0 I1Cent=   200000004 NGrid=           0
         NMat0=    1 NMatS0=      1 NMatT0=    0 NMatD0=    1 NMtDS0=    0 NMtDT0=    0
 Petite list used in FoFCou.
 Harris En= -401.247843158304    
 Leave Link  401 at Mon Feb 22 21:12:05 2021, MaxMem=   104857600 cpu:              11.8 elap:               0.4
 (Enter /sw/arch/RedHatEnterpriseServer7/EB_production/2019/software/Gaussian/g16.c01/l502.exe)
 Integral symmetry usage will be decided dynamically.
 Closed shell SCF:
 Using DIIS extrapolation, IDIIS=  1040.
 NGot=   104857600 LenX=   104749276 LenY=   104699551
 Requested convergence on RMS density matrix=1.00D-08 within 128 cycles.
 Requested convergence on MAX density matrix=1.00D-06.
 Requested convergence on             energy=1.00D-06.
 No special actions if energy rises.
 Fock matrices will be formed incrementally for  20 cycles.

 Cycle   1  Pass 1  IDiag  1:
 FoFJK:  IHMeth= 1 ICntrl=     500 DoSepK=F KAlg= 0 I1Cent=           0 FoldK=F
 IRaf= 930000000 NMat=       1 IRICut=       1 DoRegI=T DoRafI=F ISym2E= 0 IDoP0=0 IntGTp=1.
 FoFCou: FMM=F IPFlag=           0 FMFlag=      100000 FMFlg1=           0
         NFxFlg=           0 DoJE=T BraDBF=F KetDBF=F FulRan=T
         wScrn=  0.000000 ICntrl=       500 IOpCl=  0 I1Cent=           0 NGrid=           0
         NMat0=    1 NMatS0=      1 NMatT0=    0 NMatD0=    1 NMtDS0=    0 NMtDT0=    0
 Symmetry not used in FoFCou.
 Inv3:  Mode=1 IEnd=     5779632.
 Iteration    1 A*A^-1 deviation from unit magnitude is 3.11D-15 for    192.
 Iteration    1 A*A^-1 deviation from orthogonality  is 2.64D-15 for    701     24.
 Iteration    1 A^-1*A deviation from unit magnitude is 2.89D-15 for    192.
 Iteration    1 A^-1*A deviation from orthogonality  is 2.44D-15 for   1091    120.
 E= -401.106759828569    
 DIIS: error= 4.47D-03 at cycle   1 NSaved=   1.
 NSaved= 1 IEnMin= 1 EnMin= -401.106759828569     IErMin= 1 ErrMin= 4.47D-03
 ErrMax= 4.47D-03  0.00D+00 EMaxC= 1.00D-01 BMatC= 5.32D-03 BMatP= 5.32D-03
 IDIUse=3 WtCom= 9.55D-01 WtEn= 4.47D-02
 Coeff-Com:  0.100D+01
 Coeff-En:   0.100D+01
 Coeff:      0.100D+01
 Gap=     0.617 Goal=   None    Shift=    0.000
 GapD=    0.617 DampG=2.000 DampE=1.000 DampFc=2.0000 IDamp=-1.
 RMSDP=1.43D-03 MaxDP=1.13D-01              OVMax= 2.69D-02

 Cycle   2  Pass 1  IDiag  1:
 RMSU=  1.32D-03    CP:  9.64D-01
 E= -401.109994873268     Delta-E=       -0.003235044698 Rises=F Damp=F
 DIIS: error= 5.46D-03 at cycle   2 NSaved=   2.
 NSaved= 2 IEnMin= 2 EnMin= -401.109994873268     IErMin= 1 ErrMin= 4.47D-03
 ErrMax= 5.46D-03  0.00D+00 EMaxC= 1.00D-01 BMatC= 2.84D-03 BMatP= 5.32D-03
 IDIUse=3 WtCom= 9.45D-01 WtEn= 5.46D-02
 Coeff-Com:  0.385D+00 0.615D+00
 Coeff-En:   0.337D-01 0.966D+00
 Coeff:      0.366D+00 0.634D+00
 Gap=     0.126 Goal=   None    Shift=    0.000
 RMSDP=1.11D-03 MaxDP=9.37D-02 DE=-3.24D-03 OVMax= 5.05D-02

 Cycle   3  Pass 1  IDiag  1:
 RMSU=  6.18D-04    CP:  9.95D-01  4.07D-01
 E= -401.106926604498     Delta-E=        0.003068268770 Rises=F Damp=F
 DIIS: error= 8.99D-03 at cycle   3 NSaved=   3.
 NSaved= 3 IEnMin= 2 EnMin= -401.109994873268     IErMin= 1 ErrMin= 4.47D-03
 ErrMax= 8.99D-03  0.00D+00 EMaxC= 1.00D-01 BMatC= 6.85D-03 BMatP= 2.84D-03
 IDIUse=3 WtCom= 9.54D-02 WtEn= 9.05D-01
 Coeff-Com:  0.624D-01 0.582D+00 0.356D+00
 Coeff-En:   0.000D+00 0.644D+00 0.356D+00
 Coeff:      0.595D-02 0.638D+00 0.356D+00
 Gap=     0.136 Goal=   None    Shift=    0.000
 RMSDP=7.72D-04 MaxDP=6.57D-02 DE= 3.07D-03 OVMax= 2.57D-02

 Cycle   4  Pass 1  IDiag  1:
 RMSU=  1.65D-04    CP:  9.74D-01  8.11D-01  3.16D-01
 E= -401.112161416150     Delta-E=       -0.005234811651 Rises=F Damp=F
 DIIS: error= 1.01D-03 at cycle   4 NSaved=   4.
 NSaved= 4 IEnMin= 4 EnMin= -401.112161416150     IErMin= 4 ErrMin= 1.01D-03
 ErrMax= 1.01D-03  0.00D+00 EMaxC= 1.00D-01 BMatC= 1.26D-04 BMatP= 2.84D-03
 IDIUse=3 WtCom= 9.90D-01 WtEn= 1.01D-02
 Coeff-Com:  0.105D-01 0.283D+00 0.111D+00 0.595D+00
 Coeff-En:   0.000D+00 0.288D-01 0.000D+00 0.971D+00
 Coeff:      0.103D-01 0.281D+00 0.110D+00 0.599D+00
 Gap=     0.136 Goal=   None    Shift=    0.000
 RMSDP=6.79D-05 MaxDP=1.89D-03 DE=-5.23D-03 OVMax= 4.05D-03

 Cycle   5  Pass 1  IDiag  1:
 RMSU=  3.50D-05    CP:  9.74D-01  8.13D-01  3.15D-01  6.47D-01
 E= -401.112263326032     Delta-E=       -0.000101909883 Rises=F Damp=F
 DIIS: error= 2.32D-04 at cycle   5 NSaved=   5.
 NSaved= 5 IEnMin= 5 EnMin= -401.112263326032     IErMin= 5 ErrMin= 2.32D-04
 ErrMax= 2.32D-04  0.00D+00 EMaxC= 1.00D-01 BMatC= 9.56D-06 BMatP= 1.26D-04
 IDIUse=3 WtCom= 9.98D-01 WtEn= 2.32D-03
 Coeff-Com:  0.151D-02 0.125D+00 0.424D-01 0.359D+00 0.472D+00
 Coeff-En:   0.000D+00 0.000D+00 0.000D+00 0.000D+00 0.100D+01
[...]
      6          6           0        1.910250   -1.172885    0.186137
      7          6           0        2.586488    0.043208    0.018961
      8          6           0        1.859835    1.224682   -0.172675
      9          6           0        0.461333    1.195215   -0.184672
     10          1           0       -3.433976    0.940206    0.352669
     11          1           0       -1.973808    1.782244    0.779270
     12          1           0       -0.024709   -2.147855    0.279038
     13          1           0        2.473457   -2.096563    0.333857
     14          1           0        3.678021    0.069134    0.032128
     15          1           0        2.382645    2.171894   -0.319176
     16          1           0       -0.089027    2.121931   -0.360989
 ---------------------------------------------------------------------
 Rotational constants (GHZ):           3.7773526           1.1968732           0.9317020
 Standard basis: TZVP (5D, 7F)
 There are   222 symmetry adapted cartesian basis functions of A   symmetry.
 There are   213 symmetry adapted basis functions of A   symmetry.
   213 basis functions,   371 primitive gaussians,   222 cartesian basis functions
    32 alpha electrons       32 beta electrons
       nuclear repulsion energy       402.4260103809 Hartrees.
 NAtoms=   16 NActive=   16 NUniq=   16 SFac= 1.00D+00 NAtFMM=   60 NAOKFM=F Big=F
 Integral buffers will be    131072 words long.
 Raffenetti 2 integral format.
 Two-electron integral symmetry is turned on.
 Warning! Using old PCM defaults because the COSMOthermo output has been requested.
 These settings can be overridden by following keywords.
 ------------------------------------------------------------------------------
 Polarizable Continuum Model (PCM)
 =================================
 Model                : C-PCM.
 Atomic radii         : Klamt.
 XCosmo               : -1.000 (infinite dielectric limit)
 Polarization charges : Electronic and nuclear charges.
 Charge compensation  : Type 3 (Electronic density weighted correction).
 Solution method      : On-the-fly selection.
 Cavity type          : VdW (van der Waals Surface) (Alpha=1.000).
 Cavity algorithm     : GePol (No added spheres)
                        Default sphere list used, NSphG=   16.
                        Tesserae with average area of 0.200 Ang**2.
                        Smoothing algorithm: None.
                        Polarization charges: point-like.
                        Self-potential: constant (ISelfS= 1).
                        Self-field    : global E.n sum rule (ISelfD= 3).
 Solvent              : Water, Eps=  78.355300 Eps(inf)=   1.777849
 ------------------------------------------------------------------------------
 Spheres list:
 ISph  on   Nord     Re0    Alpha      Xe            Ye            Ze
    1   N      1    1.8300  1.000     -2.418794      0.983871      0.338625
    2   C      2    2.0000  1.000     -1.725350     -0.125640     -0.041448
    3   O      3    1.7200  1.000     -2.298038     -1.168684     -0.399352
    4   C      4    2.0000  1.000     -0.222753     -0.021696     -0.012666
    5   C      5    2.0000  1.000      0.514073     -1.205986      0.160971
    6   C      6    2.0000  1.000      1.910250     -1.172885      0.186137
    7   C      7    2.0000  1.000      2.586488      0.043208      0.018961
    8   C      8    2.0000  1.000      1.859835      1.224682     -0.172675
    9   C      9    2.0000  1.000      0.461333      1.195215     -0.184672
   10   H     10    1.3000  1.000     -3.433976      0.940206      0.352669
   11   H     11    1.3000  1.000     -1.973808      1.782244      0.779270
   12   H     12    1.3000  1.000     -0.024709     -2.147855      0.279038
   13   H     13    1.3000  1.000      2.473457     -2.096563      0.333857
   14   H     14    1.3000  1.000      3.678021      0.069134      0.032128
   15   H     15    1.3000  1.000      2.382645      2.171894     -0.319176
   16   H     16    1.3000  1.000     -0.089027      2.121931     -0.360989
 ------------------------------------------------------------------------------
 One-electron integrals computed using PRISM.
 PrsmSu:  requested number of processors reduced to:  29 ShMem   1 Linda.
 NBasis=   213 RedAO= T EigKep=  1.01D-05  NBF=   213
 NBsUse=   213 1.00D-06 EigRej= -1.00D+00 NBFU=   213
 Initial guess from the checkpoint file:  "KXDAEFPNCMNJSK-UHFFFAOYSA-N.chk"
 B after Tr=    -0.000000    0.000000    0.000000
         Rot=    1.000000   -0.000000   -0.000000   -0.000000 Ang=   0.00 deg.
 Requested convergence on RMS density matrix=1.00D-08 within 128 cycles.
 Requested convergence on MAX density matrix=1.00D-06.
 Requested convergence on             energy=1.00D-06.
 No special actions if energy rises.
 Inv3:  Mode=1 IEnd=     4057707.
 Iteration    1 A*A^-1 deviation from unit magnitude is 1.85D-14 for    610.
 Iteration    1 A*A^-1 deviation from orthogonality  is 2.08D-14 for    682    610.
 Iteration    1 A^-1*A deviation from unit magnitude is 2.61D-14 for    610.
 Iteration    1 A^-1*A deviation from orthogonality  is 4.99D-15 for    678    610.
 Error on nuclear    polarization charges =  0.02132
 Error on electronic polarization charges = -0.04907
 SCF Done:  E(RB-P86) =  -401.109912013     A.U. after   11 cycles
            NFock= 11  Conv=0.68D-08     -V/T= 2.0046
 --------------------------------------------------------------------
 Variational C-PCM results
 =========================
 <psi(f)|   H    |psi(f)>                     (a.u.) =    -401.085745
 <psi(f)|H+V(f)/2|psi(f)>                     (a.u.) =    -401.109912
 Total free energy in solution:
 - with all non electrostatic terms           (a.u.) =    -401.099705
 --------------------------------------------------------------------
 (Polarized solute)-Solvent               (kcal/mol) =     -15.16
 --------------------------------------------------------------------
 Cavitation energy                        (kcal/mol) =      20.23
 Dispersion energy                        (kcal/mol) =     -15.07
 Repulsion energy                         (kcal/mol) =       1.25
 Total non electrostatic                  (kcal/mol) =       6.41
 --------------------------------------------------------------------
 Partition over spheres:
 Sphere  on Atom  Surface  Charge   GEl     GCav    GDR
    1      N1      13.56  -0.002   -0.57    1.65   -1.17
    2      C2       9.46   0.005   -0.14    1.11   -0.62
    3      O3      19.61   0.300   -7.24    2.44   -1.66
    4      C4       5.73   0.013   -0.12    0.67   -0.34
    5      C5      12.60   0.028   -0.30    1.48   -0.93
    6      C6      14.00   0.025   -0.20    1.64   -1.02
    7      C7      14.03   0.024   -0.16    1.65   -1.01
    8      C8      13.99   0.024   -0.14    1.64   -1.03
    9      C9      12.19   0.014   -0.18    1.43   -0.86
   10      H10      8.09  -0.112   -1.66    1.14   -0.89
   11      H11      6.82  -0.104   -2.46    0.96   -0.67
   12      H12      6.04  -0.036    0.08    0.85   -0.62
   13      H13      6.44  -0.044   -0.33    0.91   -0.80
   14      H14      6.44  -0.043   -0.43    0.91   -0.79
   15      H15      6.44  -0.044   -0.50    0.91   -0.80
   16      H16      5.92  -0.048   -0.80    0.84   -0.61
 --------------------------------------------------------------------
 - cavitation energy not included in the total energy.
 - dispersion energy not included in the total energy.
 - repulsion  energy not included in the total energy.
 After PCM corrections, the energy is  -401.109912013     a.u.
 --------------------------------------------------------------------
 Writing COSMO formatted file "KXDAEFPNCMNJSK-UHFFFAOYSA-N.cosmo"
 Recomputed dielectric energy= -0.024260 old= -0.024167 diff=-9.33D-05

 **********************************************************************

            Population analysis using the SCF Density.

 **********************************************************************

 Orbital symmetries:
       Occupied  (A) (A) (A) (A) (A) (A) (A) (A) (A) (A) (A) (A)
                 (A) (A) (A) (A) (A) (A) (A) (A) (A) (A) (A) (A)
                 (A) (A) (A) (A) (A) (A) (A) (A)
       Virtual   (A) (A) (A) (A) (A) (A) (A) (A) (A) (A) (A) (A)
                 (A) (A) (A) (A) (A) (A) (A) (A) (A) (A) (A) (A)
                 (A) (A) (A) (A) (A) (A) (A) (A) (A) (A) (A) (A)
                 (A) (A) (A) (A) (A) (A) (A) (A) (A) (A) (A) (A)
                 (A) (A) (A) (A) (A) (A) (A) (A) (A) (A) (A) (A)
                 (A) (A) (A) (A) (A) (A) (A) (A) (A) (A) (A) (A)
                 (A) (A) (A) (A) (A) (A) (A) (A) (A) (A) (A) (A)
                 (A) (A) (A) (A) (A) (A) (A) (A) (A) (A) (A) (A)
                 (A) (A) (A) (A) (A) (A) (A) (A) (A) (A) (A) (A)
                 (A) (A) (A) (A) (A) (A) (A) (A) (A) (A) (A) (A)
                 (A) (A) (A) (A) (A) (A) (A) (A) (A) (A) (A) (A)
                 (A) (A) (A) (A) (A) (A) (A) (A) (A) (A) (A) (A)
                 (A) (A) (A) (A) (A) (A) (A) (A) (A) (A) (A) (A)
                 (A) (A) (A) (A) (A) (A) (A) (A) (A) (A) (A) (A)
                 (A) (A) (A) (A) (A) (A) (A) (A) (A) (A) (A) (A)
                 (A)
 The electronic state is 1-A.
 Alpha  occ. eigenvalues --  -18.74715 -14.02537 -10.00701  -9.92346  -9.91555
 Alpha  occ. eigenvalues --   -9.91257  -9.91197  -9.91087  -9.91046  -0.95778
 Alpha  occ. eigenvalues --   -0.83298  -0.79117  -0.69794  -0.68750  -0.58934
 Alpha  occ. eigenvalues --   -0.55709  -0.53011  -0.50118  -0.46417  -0.43587
 Alpha  occ. eigenvalues --   -0.41365  -0.39897  -0.38500  -0.37956  -0.37441
 Alpha  occ. eigenvalues --   -0.33722  -0.32188  -0.31044  -0.24934  -0.24528
 Alpha  occ. eigenvalues --   -0.24255  -0.22884
 Alpha virt. eigenvalues --   -0.07997  -0.05453   0.00089   0.02929   0.05113
 Alpha virt. eigenvalues --    0.07270   0.08219   0.09174   0.09573   0.10144
 Alpha virt. eigenvalues --    0.11591   0.12621   0.13985   0.16910   0.17713
 Alpha virt. eigenvalues --    0.18353   0.18924   0.19952   0.20455   0.21121
 Alpha virt. eigenvalues --    0.21839   0.22189   0.23689   0.25570   0.26867
 Alpha virt. eigenvalues --    0.27310   0.28537   0.30623   0.32370   0.32740
 Alpha virt. eigenvalues --    0.32840   0.33721   0.34650   0.35517   0.37846
 Alpha virt. eigenvalues --    0.38938   0.39344   0.39878   0.40142   0.41410
 Alpha virt. eigenvalues --    0.42917   0.44774   0.45287   0.46328   0.46640
 Alpha virt. eigenvalues --    0.47234   0.48984   0.50641   0.52201   0.52826
 Alpha virt. eigenvalues --    0.55382   0.56813   0.61323   0.61937   0.63036
 Alpha virt. eigenvalues --    0.64204   0.64639   0.69280   0.70652   0.72966
 Alpha virt. eigenvalues --    0.74776   0.85117   0.86550   1.07005   1.13665
 Alpha virt. eigenvalues --    1.16280   1.17063   1.18519   1.19375   1.20071
 Alpha virt. eigenvalues --    1.21413   1.22766   1.23662   1.24152   1.25197
 Alpha virt. eigenvalues --    1.25439   1.30227   1.32454   1.34007   1.37011
 Alpha virt. eigenvalues --    1.37249   1.37650   1.37982   1.39177   1.39581
 Alpha virt. eigenvalues --    1.40718   1.41799   1.42851   1.44165   1.45770
 Alpha virt. eigenvalues --    1.46458   1.46905   1.48563   1.49855   1.56412
 Alpha virt. eigenvalues --    1.57206   1.58894   1.66240   1.67999   1.70217
 Alpha virt. eigenvalues --    1.70671   1.72685   1.74270   1.77814   1.79046
 Alpha virt. eigenvalues --    1.79444   1.80140   1.82884   1.83362   1.84237
 Alpha virt. eigenvalues --    1.88130   1.88372   1.91397   1.92209   1.93159
 Alpha virt. eigenvalues --    1.94731   2.00211   2.02403   2.08943   2.14309
 Alpha virt. eigenvalues --    2.17345   2.18780   2.20980   2.21835   2.22816
 Alpha virt. eigenvalues --    2.24689   2.25666   2.26762   2.28544   2.29260
 Alpha virt. eigenvalues --    2.39489   2.40334   2.42016   2.43420   2.44027
 Alpha virt. eigenvalues --    2.48223   2.49620   2.51862   2.53003   2.54041
 Alpha virt. eigenvalues --    2.56480   2.56881   2.58970   2.60072   2.61552
 Alpha virt. eigenvalues --    2.64847   2.68082   2.69975   2.70593   2.73080
 Alpha virt. eigenvalues --    2.80621   2.81145   2.89121   2.92511   2.95118
 Alpha virt. eigenvalues --    2.95913   3.00081   3.03707   3.06391   3.07953
 Alpha virt. eigenvalues --    3.09038   3.13282   3.19072   3.22450   3.29259
 Alpha virt. eigenvalues --    3.32217   3.36334   3.43338   3.60896   3.68993
 Alpha virt. eigenvalues --    3.77084   4.13432  20.98909  21.51079  21.56280
 Alpha virt. eigenvalues --   21.75720  21.79591  21.82716  21.94357  31.37504
 Alpha virt. eigenvalues --   43.15447
          Condensed to atoms (all electrons):
               1          2          3          4          5          6
     1  N    6.606454   0.383524  -0.130836  -0.210760   0.011992  -0.001780
     2  C    0.383524   5.004269   0.685752  -0.120617  -0.057456   0.015597
     3  O   -0.130836   0.685752   8.005805  -0.188326   0.023717  -0.000875
     4  C   -0.210760  -0.120617  -0.188326   6.385807   0.189935   0.034178
     5  C    0.011992  -0.057456   0.023717   0.189935   5.293270   0.355229
     6  C   -0.001780   0.015597  -0.000875   0.034178   0.355229   5.146333
     7  C    0.000503   0.005240   0.000549  -0.124317   0.001998   0.372858
     8  C   -0.000687  -0.000820  -0.001541   0.011189  -0.104653   0.015874
     9  C    0.013651  -0.016605   0.005497   0.194169   0.015044  -0.127745
    10  H    0.344722  -0.018489   0.003885   0.016905  -0.000972   0.000082
    11  H    0.342157  -0.018630   0.004382   0.013258  -0.002034   0.000032
    12  H    0.001412  -0.014871   0.018452  -0.087978   0.436201  -0.040502
    13  H    0.000000  -0.001204  -0.000117   0.018055  -0.057286   0.431565
    14  H   -0.000000   0.000040   0.000001  -0.004710   0.017482  -0.063121
    15  H   -0.000018  -0.000667   0.000005   0.017048  -0.001598   0.012900
    16  H    0.009675  -0.011585  -0.000290  -0.076045   0.014285  -0.002009
               7          8          9         10         11         12
     1  N    0.000503  -0.000687   0.013651   0.344722   0.342157   0.001412
     2  C    0.005240  -0.000820  -0.016605  -0.018489  -0.018630  -0.014871
     3  O    0.000549  -0.001541   0.005497   0.003885   0.004382   0.018452
     4  C   -0.124317   0.011189   0.194169   0.016905   0.013258  -0.087978
     5  C    0.001998  -0.104653   0.015044  -0.000972  -0.002034   0.436201
     6  C    0.372858   0.015874  -0.127745   0.000082   0.000032  -0.040502
     7  C    5.143429   0.394088  -0.007934  -0.000009  -0.000154   0.014371
     8  C    0.394088   5.126286   0.359648   0.000074  -0.000044  -0.003368
     9  C   -0.007934   0.359648   5.279750  -0.000069  -0.002476   0.016041
    10  H   -0.000009   0.000074  -0.000069   0.384587  -0.016340  -0.000066
    11  H   -0.000154  -0.000044  -0.002476  -0.016340   0.379491  -0.000193
    12  H    0.014371  -0.003368   0.016041  -0.000066  -0.000193   0.512883
    13  H   -0.060598   0.013649  -0.001880  -0.000000   0.000004  -0.006460
    14  H    0.437380  -0.062947   0.018740  -0.000000  -0.000001  -0.000117
    15  H   -0.058325   0.427077  -0.053339  -0.000002   0.000012   0.000020
    16  H    0.011504  -0.015654   0.408282  -0.000038   0.000070  -0.000019
              13         14         15         16
     1  N    0.000000  -0.000000  -0.000018   0.009675
     2  C   -0.001204   0.000040  -0.000667  -0.011585
     3  O   -0.000117   0.000001   0.000005  -0.000290
     4  C    0.018055  -0.004710   0.017048  -0.076045
     5  C   -0.057286   0.017482  -0.001598   0.014285
     6  C    0.431565  -0.063121   0.012900  -0.002009
     7  C   -0.060598   0.437380  -0.058325   0.011504
     8  C    0.013649  -0.062947   0.427077  -0.015654
     9  C   -0.001880   0.018740  -0.053339   0.408282
    10  H   -0.000000  -0.000000  -0.000002  -0.000038
    11  H    0.000004  -0.000001   0.000012   0.000070
    12  H   -0.006460  -0.000117   0.000020  -0.000019
    13  H    0.517971  -0.006833  -0.000174   0.000022
    14  H   -0.006833   0.516350  -0.006764  -0.000157
    15  H   -0.000174  -0.006764   0.516413  -0.006128
    16  H    0.000022  -0.000157  -0.006128   0.499318
 Mulliken charges:
               1
     1  N   -0.370009
     2  C    0.166521
     3  O   -0.426059
     4  C   -0.067791
     5  C   -0.135155
     6  C   -0.148615
     7  C   -0.130586
     8  C   -0.158170
     9  C   -0.100773
    10  H    0.285730
    11  H    0.300466
    12  H    0.154194
    13  H    0.153286
    14  H    0.154656
    15  H    0.153539
    16  H    0.168767
 Sum of Mulliken charges =  -0.00000
 Mulliken charges with hydrogens summed into heavy atoms:
               1
     1  N    0.216187
     2  C    0.166521
     3  O   -0.426059
     4  C   -0.067791
     5  C    0.019039
     6  C    0.004671
     7  C    0.024070
     8  C   -0.004632
     9  C    0.067994
 Electronic spatial extent (au):  <R**2>=           1206.4867
 Charge=              0.0000 electrons
 Dipole moment (field-independent basis, Debye):
    X=              1.8965    Y=              4.8642    Z=              2.0060  Tot=              5.5930
 Quadrupole moment (field-independent basis, Debye-Ang):
   XX=            -46.2131   YY=            -47.3079   ZZ=            -56.2025
   XY=            -11.7393   XZ=             -4.7789   YZ=             -0.8193
 Traceless Quadrupole moment (field-independent basis, Debye-Ang):
   XX=              3.6947   YY=              2.5999   ZZ=             -6.2946
   XY=            -11.7393   XZ=             -4.7789   YZ=             -0.8193
 Octapole moment (field-independent basis, Debye-Ang**2):
  XXX=             -4.0662  YYY=             14.2352  ZZZ=              0.7182  XYY=              4.4626
  XXY=             31.5606  XXZ=             13.0338  XZZ=             -8.5816  YZZ=              2.1604
  YYZ=              6.2128  XYZ=             -3.2404
 Hexadecapole moment (field-independent basis, Debye-Ang**3):
 XXXX=           -953.5048 YYYY=           -360.2794 ZZZZ=            -81.2710 XXXY=            -91.1803
 XXXZ=            -35.0813 YYYX=            -28.9489 YYYZ=             -0.6797 ZZZX=             -1.8281
 ZZZY=              4.4067 XXYY=           -239.9663 XXZZ=           -215.3478 YYZZ=            -83.2915
 XXYZ=             -0.6564 YYXZ=            -13.9453 ZZXY=             -4.5977
 N-N= 4.024260103809D+02 E-N=-1.739928671530D+03  KE= 3.992572331375D+02
 Unable to Open any file for archive entry.
 1\1\GINC-TCN1632\SP\RBP86\TZVP\C7H7N1O1\ELENAA\22-Feb-2021\0\\# BP86/T
 ZVP SCRF=COSMORS geom=CHECKPOINT guess=CHECKPOINT\\COSMO-file for #KXD
 AEFPNCMNJSK-UHFFFAOYSA-N\\0,1\N,0,-2.8323436373,2.2843611834,0.0146588
 427\C,0,-2.1439605474,1.1578126082,-0.3220186729\O,0,-2.7167542578,0.1
 366864097,-0.7382125459\C,0,-0.6462293825,1.2148699727,-0.170440214\C,
 0,0.0381288336,0.0066284058,0.0472999569\C,0,1.4280055182,-0.003787479
 7,0.1857696518\C,0,2.1518279958,1.1924083405,0.0892079108\C,0,1.478982
 6535,2.3977029961,-0.1456822462\C,0,0.0858283368,2.4116886525,-0.27117
 05758\H,0,-3.8461610048,2.2720203207,-0.0540382186\H,0,-2.4008477319,3
 .0640633822,0.4998975215\H,0,-0.5365241239,-0.9192490712,0.1094975115\
 H,0,1.9493342675,-0.9459150639,0.3669176139\H,0,3.2389657213,1.1843801
 014,0.1909791072\H,0,2.0401946022,3.3297034696,-0.2374443834\H,0,-0.42
 02872433,3.356745772,-0.4797412596\\Version=ES64L-G16RevC.01\State=1-A
 \HF=-401.109912\RMSD=6.802e-09\Dipole=0.7366986,1.8816158,0.8710832\Qu
 adrupole=2.7528353,2.4835588,-5.2363941,-8.6362805,-3.0516868,-1.13179
 48\PG=C01 [X(C7H7N1O1)]\\@
 The archive entry for this job was punched.


 ALL THINGS ARE POSSIBLE EXCEPT SKIING THROUGH A REVOLVING DOOR.
 Job cpu time:       0 days  0 hours  4 minutes 32.3 seconds.
 Elapsed time:       0 days  0 hours  0 minutes  9.0 seconds.
 File lengths (MBytes):  RWF=     41 Int=      0 D2E=      0 Chk=      7 Scr=      1
 Normal termination of Gaussian 16 at Mon Feb 22 21:14:57 2021.
