 Entering Gaussian System, Link 0=g16
 Input=LVHBHZANLOWSRM-UHFFFAOYSA-N.gjf
 Output=LVHBHZANLOWSRM-UHFFFAOYSA-N.log
 Initial command:
 /sw/arch/RedHatEnterpriseServer7/EB_production/2019/software/Gaussian/g16.c01/l1.exe "/scratch-local/elenaa.9715234/Gau-30459.inp" -scrdir="/scratch-local/elenaa.9715234/"
 Entering Link 1 = /sw/arch/RedHatEnterpriseServer7/EB_production/2019/software/Gaussian/g16.c01/l1.exe PID=     30461.
  
 Copyright (c) 1988-2019, Gaussian, Inc.  All Rights Reserved.
  
 This is part of the Gaussian(R) 16 program.  It is based on
 the Gaussian(R) 09 system (copyright 2009, Gaussian, Inc.),
 the Gaussian(R) 03 system (copyright 2003, Gaussian, Inc.),
 the Gaussian(R) 98 system (copyright 1998, Gaussian, Inc.),
 the Gaussian(R) 94 system (copyright 1995, Gaussian, Inc.),
 the Gaussian 92(TM) system (copyright 1992, Gaussian, Inc.),
 the Gaussian 90(TM) system (copyright 1990, Gaussian, Inc.),
 the Gaussian 88(TM) system (copyright 1988, Gaussian, Inc.),
 the Gaussian 86(TM) system (copyright 1986, Carnegie Mellon
 University), and the Gaussian 82(TM) system (copyright 1983,
 Carnegie Mellon University). Gaussian is a federally registered
 trademark of Gaussian, Inc.
  
 This software contains proprietary and confidential information,
 including trade secrets, belonging to Gaussian, Inc.
  
 This software is provided under written license and may be
 used, copied, transmitted, or stored only in accord with that
 written license.
  
 The following legend is applicable only to US Government
 contracts under FAR:
  
                    RESTRICTED RIGHTS LEGEND
  
 Use, reproduction and disclosure by the US Government is
 subject to restrictions as set forth in subparagraphs (a)
 and (c) of the Commercial Computer Software - Restricted
 Rights clause in FAR 52.227-19.
  
 Gaussian, Inc.
 340 Quinnipiac St., Bldg. 40, Wallingford CT 06492
  
  
 ---------------------------------------------------------------
 Warning -- This program may not be used in any manner that
 competes with the business of Gaussian, Inc. or will provide
 assistance to any competitor of Gaussian, Inc.  The licensee
 of this program is prohibited from giving any competitor of
 Gaussian, Inc. access to this program.  By using this program,
 the user acknowledges that Gaussian, Inc. is engaged in the
 business of creating and licensing software in the field of
 computational chemistry and represents and warrants to the
 licensee that it is not a competitor of Gaussian, Inc. and that
 it will not use this program in any manner prohibited above.
 ---------------------------------------------------------------
  

 Cite this work as:
 Gaussian 16, Revision C.01,
 M. J. Frisch, G. W. Trucks, H. B. Schlegel, G. E. Scuseria, 
 M. A. Robb, J. R. Cheeseman, G. Scalmani, V. Barone, 
 G. A. Petersson, H. Nakatsuji, X. Li, M. Caricato, A. V. Marenich, 
 J. Bloino, B. G. Janesko, R. Gomperts, B. Mennucci, H. P. Hratchian, 
 J. V. Ortiz, A. F. Izmaylov, J. L. Sonnenberg, D. Williams-Young, 
 F. Ding, F. Lipparini, F. Egidi, J. Goings, B. Peng, A. Petrone, 
 T. Henderson, D. Ranasinghe, V. G. Zakrzewski, J. Gao, N. Rega, 
 G. Zheng, W. Liang, M. Hada, M. Ehara, K. Toyota, R. Fukuda, 
 J. Hasegawa, M. Ishida, T. Nakajima, Y. Honda, O. Kitao, H. Nakai, 
 T. Vreven, K. Throssell, J. A. Montgomery, Jr., J. E. Peralta, 
 F. Ogliaro, M. J. Bearpark, J. J. Heyd, E. N. Brothers, K. N. Kudin, 
 V. N. Staroverov, T. A. Keith, R. Kobayashi, J. Normand, 
 K. Raghavachari, A. P. Rendell, J. C. Burant, S. S. Iyengar, 
 J. Tomasi, M. Cossi, J. M. Millam, M. Klene, C. Adamo, R. Cammi, 
 J. W. Ochterski, R. L. Martin, K. Morokuma, O. Farkas, 
 J. B. Foresman, and D. J. Fox, Gaussian, Inc., Wallingford CT, 2019.
 
 ******************************************
 Gaussian 16:  ES64L-G16RevC.01  3-Jul-2019
                22-Feb-2021 
 ******************************************
 %chk=LVHBHZANLOWSRM-UHFFFAOYSA-N.chk
 %NProcShared=32
 Will use up to   32 processors via shared memory.
 -------------------------------------------------------------
 #P BP86/TZVP EmpiricalDispersion=GD3 SCRF=(Solvent=Water) Opt
 -------------------------------------------------------------
 1/18=20,19=15,26=3,38=1/1,3;
 2/9=110,12=2,17=6,18=5,40=1/2;
 3/5=19,7=101,11=2,25=1,30=1,70=2201,71=1,72=1,74=404,124=31/1,2,3;
 4//1;
 5/5=2,38=5,53=1/2;
 6/7=2,8=2,9=2,10=2,28=1/1;
 7//1,2,3,16;
 1/18=20,19=15,26=3/3(2);
 2/9=110/2;
 99//99;
 2/9=110/2;
 3/5=19,7=101,11=2,25=1,30=1,70=2205,71=1,72=1,74=404,124=31/1,2,3;
 4/5=5,16=3,69=1/1;
 5/5=2,38=5,53=1/2;
 7//1,2,3,16;
 1/18=20,19=15,26=3/3(-5);
 2/9=110/2;
 6/7=2,8=2,9=2,10=2,19=2,28=1/1;
 99/9=1/99;
 Leave Link    1 at Mon Feb 22 21:12:17 2021, MaxMem=           0 cpu:               2.2 elap:               0.1
 (Enter /sw/arch/RedHatEnterpriseServer7/EB_production/2019/software/Gaussian/g16.c01/l101.exe)
 -------------------------------------
 Particle #LVHBHZANLOWSRM-UHFFFAOYSA-N
 -------------------------------------
 Symbolic Z-matrix:
 Charge =  0 Multiplicity = 1
 C                    -2.00622   0.8603    0.46207 
 C                    -0.77781   1.22961   0.04307 
 C                     0.37388   1.08201   0.94882 
 C                     1.40855   0.17102   0.41907 
 O                     2.59191   0.55226   0.2709 
 O                     1.09234  -1.1006    0.08578 
 C                    -0.60195   1.75965  -1.24283 
 O                     0.51258   2.16233  -1.65069 
 O                    -1.62509   1.86508  -2.12841 
 H                    -2.15401   0.48426   1.36916 
 H                    -2.80827   0.94791  -0.11811 
 H                     0.80311   2.07068   1.13838 
 H                     0.08106   0.67931   1.92208 
 H                     1.77949  -1.69702  -0.27566 
 H                    -1.4722    2.23994  -3.01936 
 
 ITRead=  0  0  0  0  0  0  0  0  0  0  0  0  0  0  0
 MicOpt= -1 -1 -1 -1 -1 -1 -1 -1 -1 -1 -1 -1 -1 -1 -1
 NAtoms=     15 NQM=       15 NQMF=       0 NMMI=      0 NMMIF=      0
                NMic=       0 NMicF=      0.
                    Isotopes and Nuclear Properties:
 (Nuclear quadrupole moments (NQMom) in fm**2, nuclear magnetic moments (NMagM)
  in nuclear magnetons)

  Atom         1           2           3           4           5           6           7           8           9          10
 IAtWgt=          12          12          12          12          16          16          12          16          16           1
 AtmWgt=  12.0000000  12.0000000  12.0000000  12.0000000  15.9949146  15.9949146  12.0000000  15.9949146  15.9949146   1.0078250
 NucSpn=           0           0           0           0           0           0           0           0           0           1
 AtZEff=  -0.0000000  -0.0000000  -0.0000000  -0.0000000  -0.0000000  -0.0000000  -0.0000000  -0.0000000  -0.0000000  -0.0000000
 NQMom=    0.0000000   0.0000000   0.0000000   0.0000000   0.0000000   0.0000000   0.0000000   0.0000000   0.0000000   0.0000000
 NMagM=    0.0000000   0.0000000   0.0000000   0.0000000   0.0000000   0.0000000   0.0000000   0.0000000   0.0000000   2.7928460
 AtZNuc=   6.0000000   6.0000000   6.0000000   6.0000000   8.0000000   8.0000000   6.0000000   8.0000000   8.0000000   1.0000000

  Atom        11          12          13          14          15
 IAtWgt=           1           1           1           1           1
 AtmWgt=   1.0078250   1.0078250   1.0078250   1.0078250   1.0078250
 NucSpn=           1           1           1           1           1
 AtZEff=  -0.0000000  -0.0000000  -0.0000000  -0.0000000  -0.0000000
 NQMom=    0.0000000   0.0000000   0.0000000   0.0000000   0.0000000
 NMagM=    2.7928460   2.7928460   2.7928460   2.7928460   2.7928460
 AtZNuc=   1.0000000   1.0000000   1.0000000   1.0000000   1.0000000
 Leave Link  101 at Mon Feb 22 21:12:17 2021, MaxMem=   104857600 cpu:               2.6 elap:               0.1
 (Enter /sw/arch/RedHatEnterpriseServer7/EB_production/2019/software/Gaussian/g16.c01/l103.exe)

 GradGradGradGradGradGradGradGradGradGradGradGradGradGradGradGradGradGrad
 Berny optimization.
 Initialization pass.
                           ----------------------------
                           !    Initial Parameters    !
                           ! (Angstroms and Degrees)  !
 --------------------------                            --------------------------
 ! Name  Definition              Value          Derivative Info.                !
 --------------------------------------------------------------------------------
 ! R1    R(1,2)                  1.3494         estimate D2E/DX2                !
 ! R2    R(1,10)                 0.993          estimate D2E/DX2                !
 ! R3    R(1,11)                 0.9938         estimate D2E/DX2                !
 ! R4    R(2,3)                  1.4726         estimate D2E/DX2                !
 ! R5    R(2,7)                  1.4019         estimate D2E/DX2                !
 ! R6    R(3,4)                  1.4768         estimate D2E/DX2                !
 ! R7    R(3,12)                 1.0944         estimate D2E/DX2                !
 ! R8    R(3,13)                 1.0932         estimate D2E/DX2                !
 ! R9    R(4,5)                  1.2521         estimate D2E/DX2                !
 ! R10   R(4,6)                  1.3521         estimate D2E/DX2                !
 ! R11   R(6,14)                 0.979          estimate D2E/DX2                !
 ! R12   R(7,8)                  1.2533         estimate D2E/DX2                !
 ! R13   R(7,9)                  1.3573         estimate D2E/DX2                !
 ! R14   R(9,15)                 0.9786         estimate D2E/DX2                !
 ! A1    A(2,1,10)             121.5177         estimate D2E/DX2                !
 ! A2    A(2,1,11)             121.9581         estimate D2E/DX2                !
 ! A3    A(10,1,11)            116.5241         estimate D2E/DX2                !
 ! A4    A(1,2,3)              119.573          estimate D2E/DX2                !
 ! A5    A(1,2,7)              120.1635         estimate D2E/DX2                !
 ! A6    A(3,2,7)              120.2618         estimate D2E/DX2                !
 ! A7    A(2,3,4)              112.8997         estimate D2E/DX2                !
 ! A8    A(2,3,12)             108.8283         estimate D2E/DX2                !
 ! A9    A(2,3,13)             112.0252         estimate D2E/DX2                !
 ! A10   A(4,3,12)             110.1585         estimate D2E/DX2                !
 ! A11   A(4,3,13)             106.2466         estimate D2E/DX2                !
 ! A12   A(12,3,13)            106.477          estimate D2E/DX2                !
 ! A13   A(3,4,5)              121.1165         estimate D2E/DX2                !
 ! A14   A(3,4,6)              120.3126         estimate D2E/DX2                !
 ! A15   A(5,4,6)              118.5707         estimate D2E/DX2                !
 ! A16   A(4,6,14)             119.9866         estimate D2E/DX2                !
 ! A17   A(2,7,8)              122.1093         estimate D2E/DX2                !
 ! A18   A(2,7,9)              122.2272         estimate D2E/DX2                !
 ! A19   A(8,7,9)              115.663          estimate D2E/DX2                !
 ! A20   A(7,9,15)             120.3982         estimate D2E/DX2                !
 ! D1    D(10,1,2,3)            -0.3634         estimate D2E/DX2                !
 ! D2    D(10,1,2,7)          -179.8852         estimate D2E/DX2                !
 ! D3    D(11,1,2,3)           179.7453         estimate D2E/DX2                !
 ! D4    D(11,1,2,7)             0.2235         estimate D2E/DX2                !
 ! D5    D(1,2,3,4)            118.9887         estimate D2E/DX2                !
 ! D6    D(1,2,3,12)          -118.3763         estimate D2E/DX2                !
 ! D7    D(1,2,3,13)            -0.912          estimate D2E/DX2                !
 ! D8    D(7,2,3,4)            -61.4899         estimate D2E/DX2                !
 ! D9    D(7,2,3,12)            61.1451         estimate D2E/DX2                !
 ! D10   D(7,2,3,13)           178.6094         estimate D2E/DX2                !
 ! D11   D(1,2,7,8)            177.1751         estimate D2E/DX2                !
 ! D12   D(1,2,7,9)             -3.1031         estimate D2E/DX2                !
 ! D13   D(3,2,7,8)             -2.3434         estimate D2E/DX2                !
 ! D14   D(3,2,7,9)            177.3783         estimate D2E/DX2                !
 ! D15   D(2,3,4,5)            123.4556         estimate D2E/DX2                !
 ! D16   D(2,3,4,6)            -56.6964         estimate D2E/DX2                !
 ! D17   D(12,3,4,5)             1.5666         estimate D2E/DX2                !
 ! D18   D(12,3,4,6)          -178.5854         estimate D2E/DX2                !
 ! D19   D(13,3,4,5)          -113.3744         estimate D2E/DX2                !
 ! D20   D(13,3,4,6)            66.4737         estimate D2E/DX2                !
 ! D21   D(3,4,6,14)           179.2227         estimate D2E/DX2                !
 ! D22   D(5,4,6,14)            -0.9254         estimate D2E/DX2                !
 ! D23   D(2,7,9,15)           179.9644         estimate D2E/DX2                !
 ! D24   D(8,7,9,15)            -0.297          estimate D2E/DX2                !
 --------------------------------------------------------------------------------
 Trust Radius=3.00D-01 FncErr=1.00D-07 GrdErr=1.00D-06 EigMax=2.50D+02 EigMin=1.00D-04
 Number of steps in this run=     68 maximum allowed number of steps=    100.
 GradGradGradGradGradGradGradGradGradGradGradGradGradGradGradGradGradGrad

 Leave Link  103 at Mon Feb 22 21:12:17 2021, MaxMem=   104857600 cpu:               0.3 elap:               0.0
 (Enter /sw/arch/RedHatEnterpriseServer7/EB_production/2019/software/Gaussian/g16.c01/l202.exe)
                          Input orientation:                          
 ---------------------------------------------------------------------
 Center     Atomic      Atomic             Coordinates (Angstroms)
 Number     Number       Type             X           Y           Z
 ---------------------------------------------------------------------
      1          6           0       -2.006220    0.860300    0.462070
      2          6           0       -0.777810    1.229610    0.043070
      3          6           0        0.373880    1.082010    0.948820
      4          6           0        1.408550    0.171020    0.419070
      5          8           0        2.591910    0.552260    0.270900
      6          8           0        1.092340   -1.100600    0.085780
      7          6           0       -0.601950    1.759650   -1.242830
      8          8           0        0.512580    2.162330   -1.650690
      9          8           0       -1.625090    1.865080   -2.128410
     10          1           0       -2.154010    0.484260    1.369160
     11          1           0       -2.808270    0.947910   -0.118110
     12          1           0        0.803110    2.070680    1.138380
     13          1           0        0.081060    0.679310    1.922080
     14          1           0        1.779490   -1.697020   -0.275660
     15          1           0       -1.472200    2.239940   -3.019360
 ---------------------------------------------------------------------
                    Distance matrix (angstroms):
                    1          2          3          4          5
     1  C    0.000000
     2  C    1.349423   0.000000
     3  C    2.439458   1.472603   0.000000
     4  C    3.483907   2.458080   1.476848   0.000000
     5  O    4.612400   3.444666   2.379048   1.252054   0.000000
     6  O    3.686163   2.988171   2.454549   1.352068   2.239403
     7  C    2.384846   1.401930   2.492944   3.054139   3.734958
     8  O    3.536013   2.324628   2.818471   3.008652   3.257061
     9  O    2.804537   2.415995   3.752123   4.308418   5.026258
    10  H    0.993006   2.051338   2.631391   3.700355   4.871812
    11  H    0.993765   2.056235   3.358929   4.321307   5.428610
    12  H    3.132850   2.099145   1.094367   2.119593   2.501585
    13  H    2.553649   2.138029   1.093227   2.068726   3.007807
    14  H    4.627713   3.899556   3.346356   2.027269   2.453164
    15  H    3.782716   3.298700   4.527170   4.939833   5.494640
                    6          7          8          9         10
     6  O    0.000000
     7  C    3.580063   0.000000
     8  O    3.741412   1.253267   0.000000
     9  O    4.591549   1.357270   2.210477   0.000000
    10  H    3.833749   3.295148   4.364186   3.797291   0.000000
    11  H    4.410524   2.606101   3.853785   2.506476   1.689674
    12  H    3.353899   2.782282   2.805658   4.075579   3.363710
    13  H    2.750048   3.413252   3.892331   4.552304   2.310693
    14  H    0.979046   4.307580   4.288397   5.264257   4.789137
    15  H    5.232396   2.035699   2.412184   0.978615   4.775603
                   11         12         13         14         15
    11  H    0.000000
    12  H    3.985153   0.000000
    13  H    3.547217   1.752556   0.000000
    14  H    5.297926   4.141061   3.655362   0.000000
    15  H    3.445530   4.742624   5.409807   5.796640   0.000000
 Stoichiometry    C5H6O4
 Framework group  C1[X(C5H6O4)]
 Deg. of freedom    39
 Full point group                 C1      NOp   1
 Largest Abelian subgroup         C1      NOp   1
 Largest concise Abelian subgroup C1      NOp   1
                         Standard orientation:                         
 ---------------------------------------------------------------------
 Center     Atomic      Atomic             Coordinates (Angstroms)
 Number     Number       Type             X           Y           Z
 ---------------------------------------------------------------------
      1          6           0       -1.257734    1.871879   -0.097057
      2          6           0       -0.657092    0.686177   -0.330040
      3          6           0        0.699930    0.658718   -0.901263
      4          6           0        1.684101    0.007418   -0.013403
      5          8           0        2.363125   -0.968595   -0.405784
      6          8           0        1.871180    0.460481    1.246686
      7          6           0       -1.325556   -0.511299   -0.039151
      8          8           0       -0.823489   -1.632123   -0.288870
      9          8           0       -2.554902   -0.532790    0.535679
     10          1           0       -0.803618    2.732010   -0.297090
     11          1           0       -2.173696    1.931684    0.283741
     12          1           0        0.666140    0.145795   -1.867393
     13          1           0        1.082750    1.663837   -1.097045
     14          1           0        2.516668    0.018011    1.834985
     15          1           0       -2.997453   -1.384484    0.726604
 ---------------------------------------------------------------------
 Rotational constants (GHZ):           2.6481203           1.1990124           0.9992713
 Leave Link  202 at Mon Feb 22 21:12:18 2021, MaxMem=   104857600 cpu:               0.5 elap:               0.0
 (Enter /sw/arch/RedHatEnterpriseServer7/EB_production/2019/software/Gaussian/g16.c01/l301.exe)
 Standard basis: TZVP (5D, 7F)
 Ernie: Thresh=  0.10000D-02 Tol=  0.10000D-05 Strict=F.
 There are   216 symmetry adapted cartesian basis functions of A   symmetry.
 There are   207 symmetry adapted basis functions of A   symmetry.
   207 basis functions,   363 primitive gaussians,   216 cartesian basis functions
    34 alpha electrons       34 beta electrons
       nuclear repulsion energy       447.4121479797 Hartrees.
 IExCor=  404 DFT=T Ex=B Corr=P86 ExCW=0 ScaHFX=  0.000000
 ScaDFX=  1.000000  1.000000  1.000000  1.000000 ScalE2=  1.000000  1.000000
 IRadAn=      5 IRanWt=     -1 IRanGd=            0 ICorTp=0 IEmpDi=131
 NAtoms=   15 NActive=   15 NUniq=   15 SFac= 1.00D+00 NAtFMM=   60 NAOKFM=F Big=F
 Integral buffers will be    131072 words long.
 Raffenetti 2 integral format.
 Two-electron integral symmetry is turned on.
 R6Disp:  Grimme-D3 Dispersion energy=       -0.0133180235 Hartrees.
 Nuclear repulsion after empirical dispersion term =      447.3988299562 Hartrees.
 ------------------------------------------------------------------------------
 Polarizable Continuum Model (PCM)
 =================================
 Model                : PCM.
 Atomic radii         : UFF (Universal Force Field).
 Polarization charges : Total charges.
 Charge compensation  : None.
 Solution method      : On-the-fly selection.
 Cavity type          : Scaled VdW (van der Waals Surface) (Alpha=1.100).
 Cavity algorithm     : GePol (No added spheres)
                        Default sphere list used, NSphG=   15.
                        Lebedev-Laikov grids with approx.  5.0 points / Ang**2.
                        Smoothing algorithm: York/Karplus (Gamma=1.0000).
                        Polarization charges: spherical gaussians, with
                                              point-specific exponents (IZeta= 3).
                        Self-potential: point-specific (ISelfS= 7).
                        Self-field    : sphere-specific E.n sum rule (ISelfD= 2).
 1st derivatives      : Analytical E(r).r(x)/FMM algorithm (CHGder, D1EAlg=3).
                        Cavity 1st derivative terms included.
 Solvent              : Water, Eps=  78.355300 Eps(inf)=   1.777849
 ------------------------------------------------------------------------------
 Spheres list:
 ISph  on   Nord     Re0    Alpha      Xe            Ye            Ze
    1   C      1    1.9255  1.100     -1.257734      1.871879     -0.097057
    2   C      2    1.9255  1.100     -0.657092      0.686177     -0.330040
    3   C      3    1.9255  1.100      0.699930      0.658718     -0.901263
    4   C      4    1.9255  1.100      1.684101      0.007418     -0.013403
    5   O      5    1.7500  1.100      2.363125     -0.968595     -0.405784
    6   O      6    1.7500  1.100      1.871180      0.460481      1.246686
    7   C      7    1.9255  1.100     -1.325556     -0.511299     -0.039151
    8   O      8    1.7500  1.100     -0.823489     -1.632123     -0.288870
    9   O      9    1.7500  1.100     -2.554902     -0.532790      0.535679
   10   H     10    1.4430  1.100     -0.803618      2.732010     -0.297090
   11   H     11    1.4430  1.100     -2.173696      1.931684      0.283741
   12   H     12    1.4430  1.100      0.666140      0.145795     -1.867393
   13   H     13    1.4430  1.100      1.082750      1.663837     -1.097045
   14   H     14    1.4430  1.100      2.516668      0.018011      1.834985
   15   H     15    1.4430  1.100     -2.997453     -1.384484      0.726604
 ------------------------------------------------------------------------------
 GePol: Number of generator spheres                  =      15
 GePol: Total number of spheres                      =      15
 GePol: Number of exposed spheres                    =      15 (100.00%)
 GePol: Number of points                             =    1375
 GePol: Average weight of points                     =       0.13
 GePol: Minimum weight of points                     =   0.31D-08
 GePol: Maximum weight of points                     =    0.20577
 GePol: Number of points with low weight             =      69
 GePol: Fraction of low-weight points (<1% of avg)   =       5.02%
 GePol: Cavity surface area                          =    185.255 Ang**2
 GePol: Cavity volume                                =    177.015 Ang**3
 Leave Link  301 at Mon Feb 22 21:12:18 2021, MaxMem=   104857600 cpu:               1.9 elap:               0.1
 (Enter /sw/arch/RedHatEnterpriseServer7/EB_production/2019/software/Gaussian/g16.c01/l302.exe)
 NPDir=0 NMtPBC=     1 NCelOv=     1 NCel=       1 NClECP=     1 NCelD=      1
         NCelK=      1 NCelE2=     1 NClLst=     1 CellRange=     0.0.
 One-electron integrals computed using PRISM.
 One-electron integral symmetry used in STVInt
 PrsmSu:  requested number of processors reduced to:  29 ShMem   1 Linda.
 NBasis=   207 RedAO= T EigKep=  1.53D-04  NBF=   207
 NBsUse=   207 1.00D-06 EigRej= -1.00D+00 NBFU=   207
 Precomputing XC quadrature grid using
 IXCGrd= 4 IRadAn=           5 IRanWt=          -1 IRanGd=           0 AccXCQ= 0.00D+00.
 Generated NRdTot=       0 NPtTot=           0 NUsed=           0 NTot=          32
 NSgBfM=   213   213   213   213   213 MxSgAt=    15 MxSgA2=    15.
 Leave Link  302 at Mon Feb 22 21:12:18 2021, MaxMem=   104857600 cpu:               7.8 elap:               0.3
 (Enter /sw/arch/RedHatEnterpriseServer7/EB_production/2019/software/Gaussian/g16.c01/l303.exe)
 DipDrv:  MaxL=1.
 Leave Link  303 at Mon Feb 22 21:12:18 2021, MaxMem=   104857600 cpu:               3.7 elap:               0.2
 (Enter /sw/arch/RedHatEnterpriseServer7/EB_production/2019/software/Gaussian/g16.c01/l401.exe)
 ExpMin= 9.52D-02 ExpMax= 2.70D+04 ExpMxC= 9.22D+02 IAcc=3 IRadAn=         5 AccDes= 0.00D+00
 Harris functional with IExCor=  404 and IRadAn=       5 diagonalized for initial guess.
 HarFok:  IExCor=  404 AccDes= 0.00D+00 IRadAn=         5 IDoV= 1 UseB2=F ITyADJ=14
 ICtDFT=  3500011 ScaDFX=  1.000000  1.000000  1.000000  1.000000
 FoFCou: FMM=F IPFlag=           0 FMFlag=      100000 FMFlg1=           0
         NFxFlg=           0 DoJE=T BraDBF=F KetDBF=T FulRan=T
         wScrn=  0.000000 ICntrl=       500 IOpCl=  0 I1Cent=   200000004 NGrid=           0
         NMat0=    1 NMatS0=      1 NMatT0=    0 NMatD0=    1 NMtDS0=    0 NMtDT0=    0
 Petite list used in FoFCou.
 Harris En= -495.370315342981    
 JPrj=0 DoOrth=F DoCkMO=F.
 Leave Link  401 at Mon Feb 22 21:12:19 2021, MaxMem=   104857600 cpu:               9.3 elap:               0.3
 (Enter /sw/arch/RedHatEnterpriseServer7/EB_production/2019/software/Gaussian/g16.c01/l502.exe)
 Integral symmetry usage will be decided dynamically.
 Closed shell SCF:
 Using DIIS extrapolation, IDIIS=  1040.
 NGot=   104857600 LenX=   104754792 LenY=   104707695
 Requested convergence on RMS density matrix=1.00D-08 within 128 cycles.
 Requested convergence on MAX density matrix=1.00D-06.
 Requested convergence on             energy=1.00D-06.
 No special actions if energy rises.
 Fock matrices will be formed incrementally for  20 cycles.

 Cycle   1  Pass 1  IDiag  1:
 FoFJK:  IHMeth= 1 ICntrl=     500 DoSepK=F KAlg= 0 I1Cent=           0 FoldK=F
 IRaf= 930000000 NMat=       1 IRICut=       1 DoRegI=T DoRafI=F ISym2E= 0 IDoP0=0 IntGTp=1.
 FoFCou: FMM=F IPFlag=           0 FMFlag=      100000 FMFlg1=           0
         NFxFlg=           0 DoJE=T BraDBF=F KetDBF=F FulRan=T
         wScrn=  0.000000 ICntrl=       500 IOpCl=  0 I1Cent=           0 NGrid=           0
         NMat0=    1 NMatS0=      1 NMatT0=    0 NMatD0=    1 NMtDS0=    0 NMtDT0=    0
 Symmetry not used in FoFCou.
 Inv3:  Mode=1 IEnd=     5671875.
 Iteration    1 A*A^-1 deviation from unit magnitude is 2.89D-15 for    727.
 Iteration    1 A*A^-1 deviation from orthogonality  is 1.49D-15 for   1345    253.
 Iteration    1 A^-1*A deviation from unit magnitude is 2.89D-15 for    410.
 Iteration    1 A^-1*A deviation from orthogonality  is 3.33D-15 for   1086    880.
 E= -494.954703340764    
 DIIS: error= 3.05D-02 at cycle   1 NSaved=   1.
 NSaved= 1 IEnMin= 1 EnMin= -494.954703340764     IErMin= 1 ErrMin= 3.05D-02
 ErrMax= 3.05D-02  0.00D+00 EMaxC= 1.00D-01 BMatC= 3.54D-01 BMatP= 3.54D-01
 IDIUse=3 WtCom= 6.95D-01 WtEn= 3.05D-01
 Coeff-Com:  0.100D+01
 Coeff-En:   0.100D+01
 Coeff:      0.100D+01
 Gap=     0.046 Goal=   None    Shift=    0.000
 GapD=    0.046 DampG=0.250 DampE=0.500 DampFc=0.2500 IDamp=-1.
 Damping current iteration by 2.50D-01
 RMSDP=1.35D-02 MaxDP=7.61D-01              OVMax= 3.32D-01

 Cycle   2  Pass 1  IDiag  1:
 RMSU=  3.37D-03    CP:  1.02D+00
 E= -495.044496565586     Delta-E=       -0.089793224822 Rises=F Damp=T
 DIIS: error= 7.52D-03 at cycle   2 NSaved=   2.
 NSaved= 2 IEnMin= 2 EnMin= -495.044496565586     IErMin= 2 ErrMin= 7.52D-03
 ErrMax= 7.52D-03  0.00D+00 EMaxC= 1.00D-01 BMatC= 4.18D-02 BMatP= 3.54D-01
 IDIUse=3 WtCom= 9.25D-01 WtEn= 7.52D-02
 Coeff-Com: -0.245D+00 0.125D+01
 Coeff-En:   0.872D-01 0.913D+00
 Coeff:     -0.220D+00 0.122D+01
 Gap=     0.132 Goal=   None    Shift=    0.000
 RMSDP=2.37D-03 MaxDP=6.66D-02 DE=-8.98D-02 OVMax= 2.72D-01

 Cycle   3  Pass 1  IDiag  1:
 RMSU=  2.34D-03    CP:  1.01D+00  9.10D-01
 E= -495.138919735259     Delta-E=       -0.094423169673 Rises=F Damp=F
 DIIS: error= 2.10D-02 at cycle   3 NSaved=   3.
 NSaved= 3 IEnMin= 3 EnMin= -495.138919735259     IErMin= 2 ErrMin= 7.52D-03
 ErrMax= 2.10D-02  0.00D+00 EMaxC= 1.00D-01 BMatC= 1.10D-01 BMatP= 4.18D-02
 IDIUse=2 WtCom= 0.00D+00 WtEn= 1.00D+00
 EnCoef did     7 forward-backward iterations
 Coeff-En:   0.170D-01 0.102D+00 0.881D+00
 Coeff:      0.170D-01 0.102D+00 0.881D+00
 Gap=     0.156 Goal=   None    Shift=    0.000
 RMSDP=6.23D-03 MaxDP=2.24D-01 DE=-9.44D-02 OVMax= 3.80D-01

 Cycle   4  Pass 1  IDiag  1:
 RMSU=  2.50D-03    CP:  1.05D+00  2.13D+00 -6.66D-01
 E= -494.551949980154     Delta-E=        0.586969755104 Rises=F Damp=F
 DIIS: error= 5.10D-02 at cycle   4 NSaved=   4.
 NSaved= 4 IEnMin= 3 EnMin= -495.138919735259     IErMin= 2 ErrMin= 7.52D-03
 ErrMax= 5.10D-02  0.00D+00 EMaxC= 1.00D-01 BMatC= 8.51D-01 BMatP= 4.18D-02
 IDIUse=2 WtCom= 0.00D+00 WtEn= 1.00D+00
 Coeff-En:   0.000D+00 0.000D+00 0.814D+00 0.186D+00
 Coeff:      0.000D+00 0.000D+00 0.814D+00 0.186D+00
 Gap=     0.091 Goal=   None    Shift=    0.000
 RMSDP=4.27D-03 MaxDP=1.95D-01 DE= 5.87D-01 OVMax= 2.12D-01

 Cycle   5  Pass 1  IDiag  1:
 RMSU=  7.16D-04    CP:  1.03D+00  1.07D+00  7.93D-02  4.49D-01
 E= -495.172777198586     Delta-E=       -0.620827218431 Rises=F Damp=F
 DIIS: error= 1.59D-02 at cycle   5 NSaved=   5.
 NSaved= 5 IEnMin= 5 EnMin= -495.172777198586     IErMin= 2 ErrMin= 7.52D-03
 ErrMax= 1.59D-02  0.00D+00 EMaxC= 1.00D-01 BMatC= 7.35D-02 BMatP= 4.18D-02
 IDIUse=2 WtCom= 0.00D+00 WtEn= 1.00D+00
 Coeff-En:   0.000D+00 0.000D+00 0.418D+00 0.000D+00 0.582D+00
 Coeff:      0.000D+00 0.000D+00 0.418D+00 0.000D+00 0.582D+00
 Gap=     0.125 Goal=   None    Shift=    0.000
 RMSDP=1.28D-03 MaxDP=2.24D-02 DE=-6.21D-01 OVMax= 9.49D-02

 Cycle   6  Pass 1  IDiag  1:
 RMSU=  2.50D-04    CP:  1.02D+00  9.81D-01  5.14D-01  1.92D-01  8.03D-01
 E= -495.227368944552     Delta-E=       -0.054591745966 Rises=F Damp=F
 DIIS: error= 4.26D-03 at cycle   6 NSaved=   6.
 NSaved= 6 IEnMin= 6 EnMin= -495.227368944552     IErMin= 6 ErrMin= 4.26D-03
 ErrMax= 4.26D-03  0.00D+00 EMaxC= 1.00D-01 BMatC= 4.07D-03 BMatP= 4.18D-02
 IDIUse=3 WtCom= 9.57D-01 WtEn= 4.26D-02
 Coeff-Com: -0.386D-01 0.614D-01 0.250D+00-0.364D-01 0.448D+00 0.316D+00
 Coeff-En:   0.000D+00 0.000D+00 0.000D+00 0.000D+00 0.852D-02 0.991D+00
 Coeff:     -0.370D-01 0.588D-01 0.239D+00-0.348D-01 0.429D+00 0.345D+00
 Gap=     0.121 Goal=   None    Shift=    0.000
 RMSDP=2.81D-04 MaxDP=6.56D-03 DE=-5.46D-02 OVMax= 1.62D-02

 Cycle   7  Pass 1  IDiag  1:
 RMSU=  1.39D-04    CP:  1.02D+00  9.91D-01  4.65D-01  2.49D-01  7.99D-01
                    CP:  3.73D-01
 E= -495.229988053331     Delta-E=       -0.002619108779 Rises=F Damp=F
 DIIS: error= 1.06D-03 at cycle   7 NSaved=   7.
 NSaved= 7 IEnMin= 7 EnMin= -495.229988053331     IErMin= 7 ErrMin= 1.06D-03
 ErrMax= 1.06D-03  0.00D+00 EMaxC= 1.00D-01 BMatC= 3.02D-04 BMatP= 4.07D-03
 IDIUse=3 WtCom= 9.89D-01 WtEn= 1.06D-02
 Coeff-Com: -0.253D-01 0.417D-01 0.111D+00-0.286D-01 0.229D+00 0.226D+00
 Coeff-Com:  0.447D+00
 Coeff-En:   0.000D+00 0.000D+00 0.000D+00 0.000D+00 0.000D+00 0.655D-01
 Coeff-En:   0.935D+00
 Coeff:     -0.250D-01 0.413D-01 0.109D+00-0.283D-01 0.227D+00 0.224D+00
 Coeff:      0.452D+00
 Gap=     0.121 Goal=   None    Shift=    0.000
 RMSDP=8.51D-05 MaxDP=1.65D-03 DE=-2.62D-03 OVMax= 7.29D-03

 Cycle   8  Pass 1  IDiag  1:
 RMSU=  3.46D-05    CP:  1.02D+00  9.85D-01  4.68D-01  2.37D-01  8.15D-01
                    CP:  4.42D-01  5.29D-01
 E= -495.230209680869     Delta-E=       -0.000221627539 Rises=F Damp=F
 DIIS: error= 4.22D-04 at cycle   8 NSaved=   8.
 NSaved= 8 IEnMin= 8 EnMin= -495.230209680869     IErMin= 8 ErrMin= 4.22D-04
 ErrMax= 4.22D-04  0.00D+00 EMaxC= 1.00D-01 BMatC= 2.64D-05 BMatP= 3.02D-04
 IDIUse=3 WtCom= 9.96D-01 WtEn= 4.22D-03
 Coeff-Com:  0.271D-03-0.668D-03 0.204D-01-0.642D-02 0.473D-01 0.103D+00
 Coeff-Com:  0.278D+00 0.558D+00
 Coeff-En:   0.000D+00 0.000D+00 0.000D+00 0.000D+00 0.000D+00 0.000D+00
 Coeff-En:   0.304D-01 0.970D+00
 Coeff:      0.270D-03-0.665D-03 0.204D-01-0.639D-02 0.471D-01 0.102D+00
 Coeff:      0.277D+00 0.560D+00
 Gap=     0.121 Goal=   None    Shift=    0.000
 RMSDP=2.50D-05 MaxDP=8.37D-04 DE=-2.22D-04 OVMax= 2.77D-03

 Cycle   9  Pass 1  IDiag  1:
 RMSU=  1.58D-05    CP:  1.02D+00  9.83D-01  4.70D-01  2.36D-01  8.12D-01
                    CP:  4.40D-01  5.88D-01  6.02D-01
 E= -495.230231988947     Delta-E=       -0.000022308078 Rises=F Damp=F
 DIIS: error= 1.30D-04 at cycle   9 NSaved=   9.
 NSaved= 9 IEnMin= 9 EnMin= -495.230231988947     IErMin= 9 ErrMin= 1.30D-04
 ErrMax= 1.30D-04  0.00D+00 EMaxC= 1.00D-01 BMatC= 5.21D-06 BMatP= 2.64D-05
 IDIUse=3 WtCom= 9.99D-01 WtEn= 1.30D-03
 Coeff-Com:  0.390D-02-0.665D-02 0.479D-02-0.143D-02 0.124D-01 0.587D-01
 Coeff-Com:  0.163D+00 0.415D+00 0.350D+00
 Coeff-En:   0.000D+00 0.000D+00 0.000D+00 0.000D+00 0.000D+00 0.000D+00
 Coeff-En:   0.000D+00 0.514D-01 0.949D+00
 Coeff:      0.389D-02-0.664D-02 0.478D-02-0.142D-02 0.123D-01 0.586D-01
 Coeff:      0.163D+00 0.415D+00 0.351D+00
 Gap=     0.121 Goal=   None    Shift=    0.000
 RMSDP=1.25D-05 MaxDP=4.00D-04 DE=-2.23D-05 OVMax= 7.23D-04

 Cycle  10  Pass 1  IDiag  1:
 RMSU=  5.64D-06    CP:  1.02D+00  9.81D-01  4.71D-01  2.36D-01  8.11D-01
                    CP:  4.58D-01  6.00D-01  6.83D-01  4.71D-01
 E= -495.230235888454     Delta-E=       -0.000003899506 Rises=F Damp=F
 DIIS: error= 4.06D-05 at cycle  10 NSaved=  10.
 NSaved=10 IEnMin=10 EnMin= -495.230235888454     IErMin=10 ErrMin= 4.06D-05
 ErrMax= 4.06D-05  0.00D+00 EMaxC= 1.00D-01 BMatC= 2.45D-07 BMatP= 5.21D-06
 IDIUse=1 WtCom= 1.00D+00 WtEn= 0.00D+00
 Coeff-Com:  0.161D-02-0.231D-02 0.127D-02-0.446D-03 0.269D-02 0.197D-01
 Coeff-Com:  0.573D-01 0.169D+00 0.194D+00 0.556D+00
 Coeff:      0.161D-02-0.231D-02 0.127D-02-0.446D-03 0.269D-02 0.197D-01
 Coeff:      0.573D-01 0.169D+00 0.194D+00 0.556D+00
 Gap=     0.121 Goal=   None    Shift=    0.000
 RMSDP=3.14D-06 MaxDP=1.25D-04 DE=-3.90D-06 OVMax= 2.15D-04

 Cycle  11  Pass 1  IDiag  1:
 RMSU=  1.61D-06    CP:  1.02D+00  9.81D-01  4.71D-01  2.36D-01  8.11D-01
                    CP:  4.57D-01  5.97D-01  6.89D-01  5.29D-01  8.17D-01
 E= -495.230236046565     Delta-E=       -0.000000158112 Rises=F Damp=F
 DIIS: error= 1.35D-05 at cycle  11 NSaved=  11.
 NSaved=11 IEnMin=11 EnMin= -495.230236046565     IErMin=11 ErrMin= 1.35D-05
 ErrMax= 1.35D-05  0.00D+00 EMaxC= 1.00D-01 BMatC= 3.05D-08 BMatP= 2.45D-07
 IDIUse=1 WtCom= 1.00D+00 WtEn= 0.00D+00
 Coeff-Com:  0.604D-03-0.783D-03 0.379D-03-0.123D-03 0.537D-03 0.568D-02
 Coeff-Com:  0.161D-01 0.533D-01 0.701D-01 0.341D+00 0.513D+00
 Coeff:      0.604D-03-0.783D-03 0.379D-03-0.123D-03 0.537D-03 0.568D-02
 Coeff:      0.161D-01 0.533D-01 0.701D-01 0.341D+00 0.513D+00
 Gap=     0.121 Goal=   None    Shift=    0.000
 RMSDP=1.13D-06 MaxDP=4.51D-05 DE=-1.58D-07 OVMax= 6.33D-05

 Cycle  12  Pass 1  IDiag  1:
 RMSU=  4.79D-07    CP:  1.02D+00  9.81D-01  4.71D-01  2.36D-01  8.11D-01
                    CP:  4.58D-01  5.98D-01  6.87D-01  5.13D-01  8.18D-01
                    CP:  5.54D-01
 E= -495.230236066394     Delta-E=       -0.000000019829 Rises=F Damp=F
 DIIS: error= 4.44D-06 at cycle  12 NSaved=  12.
 NSaved=12 IEnMin=12 EnMin= -495.230236066394     IErMin=12 ErrMin= 4.44D-06
 ErrMax= 4.44D-06  0.00D+00 EMaxC= 1.00D-01 BMatC= 2.02D-09 BMatP= 3.05D-08
 IDIUse=1 WtCom= 1.00D+00 WtEn= 0.00D+00
 Coeff-Com:  0.215D-03-0.255D-03 0.152D-03-0.475D-04 0.155D-03 0.165D-02
 Coeff-Com:  0.476D-02 0.173D-01 0.230D-01 0.142D+00 0.284D+00 0.527D+00
 Coeff:      0.215D-03-0.255D-03 0.152D-03-0.475D-04 0.155D-03 0.165D-02
 Coeff:      0.476D-02 0.173D-01 0.230D-01 0.142D+00 0.284D+00 0.527D+00
 Gap=     0.121 Goal=   None    Shift=    0.000
 RMSDP=2.96D-07 MaxDP=1.44D-05 DE=-1.98D-08 OVMax= 1.61D-05

 Cycle  13  Pass 1  IDiag  1:
 RMSU=  1.47D-07    CP:  1.02D+00  9.81D-01  4.71D-01  2.36D-01  8.11D-01
                    CP:  4.57D-01  5.98D-01  6.87D-01  5.17D-01  8.18D-01
                    CP:  5.99D-01  6.34D-01
 E= -495.230236067733     Delta-E=       -0.000000001340 Rises=F Damp=F
 DIIS: error= 1.28D-06 at cycle  13 NSaved=  13.
 NSaved=13 IEnMin=13 EnMin= -495.230236067733     IErMin=13 ErrMin= 1.28D-06
 ErrMax= 1.28D-06  0.00D+00 EMaxC= 1.00D-01 BMatC= 3.16D-10 BMatP= 2.02D-09
 IDIUse=1 WtCom= 1.00D+00 WtEn= 0.00D+00
 Coeff-Com:  0.410D-04-0.377D-04 0.415D-04-0.895D-05 0.108D-04 0.612D-04
 Coeff-Com:  0.282D-03 0.205D-02 0.234D-02 0.335D-01 0.997D-01 0.329D+00
 Coeff-Com:  0.533D+00
 Coeff:      0.410D-04-0.377D-04 0.415D-04-0.895D-05 0.108D-04 0.612D-04
 Coeff:      0.282D-03 0.205D-02 0.234D-02 0.335D-01 0.997D-01 0.329D+00
 Coeff:      0.533D+00
 Gap=     0.121 Goal=   None    Shift=    0.000
 RMSDP=1.08D-07 MaxDP=3.84D-06 DE=-1.34D-09 OVMax= 3.69D-06

 Cycle  14  Pass 1  IDiag  1:
 RMSU=  6.22D-08    CP:  1.02D+00  9.81D-01  4.71D-01  2.36D-01  8.11D-01
                    CP:  4.57D-01  5.98D-01  6.88D-01  5.15D-01  8.22D-01
                    CP:  6.01D-01  6.70D-01  6.17D-01
 E= -495.230236067945     Delta-E=       -0.000000000212 Rises=F Damp=F
 DIIS: error= 2.32D-07 at cycle  14 NSaved=  14.
 NSaved=14 IEnMin=14 EnMin= -495.230236067945     IErMin=14 ErrMin= 2.32D-07
 ErrMax= 2.32D-07  0.00D+00 EMaxC= 1.00D-01 BMatC= 1.64D-11 BMatP= 3.16D-10
 IDIUse=1 WtCom= 1.00D+00 WtEn= 0.00D+00
 Coeff-Com:  0.120D-04-0.111D-04 0.155D-04-0.200D-05 0.250D-05-0.376D-04
 Coeff-Com: -0.658D-04 0.210D-03-0.121D-03 0.872D-02 0.337D-01 0.132D+00
 Coeff-Com:  0.280D+00 0.545D+00
 Coeff:      0.120D-04-0.111D-04 0.155D-04-0.200D-05 0.250D-05-0.376D-04
 Coeff:     -0.658D-04 0.210D-03-0.121D-03 0.872D-02 0.337D-01 0.132D+00
 Coeff:      0.280D+00 0.545D+00
 Gap=     0.121 Goal=   None    Shift=    0.000
 RMSDP=3.10D-08 MaxDP=1.06D-06 DE=-2.12D-10 OVMax= 1.25D-06

 Cycle  15  Pass 1  IDiag  1:
 RMSU=  1.83D-08    CP:  1.02D+00  9.81D-01  4.71D-01  2.36D-01  8.11D-01
                    CP:  4.57D-01  5.98D-01  6.87D-01  5.14D-01  8.21D-01
                    CP:  5.97D-01  6.97D-01  6.34D-01  8.59D-01
 E= -495.230236067958     Delta-E=       -0.000000000013 Rises=F Damp=F
 DIIS: error= 7.05D-08 at cycle  15 NSaved=  15.
 NSaved=15 IEnMin=15 EnMin= -495.230236067958     IErMin=15 ErrMin= 7.05D-08
 ErrMax= 7.05D-08  0.00D+00 EMaxC= 1.00D-01 BMatC= 1.68D-12 BMatP= 1.64D-11
 IDIUse=1 WtCom= 1.00D+00 WtEn= 0.00D+00
 Coeff-Com:  0.616D-06 0.779D-06 0.437D-05-0.568D-06 0.426D-06-0.337D-04
 Coeff-Com: -0.797D-04-0.126D-03-0.349D-03 0.691D-03 0.625D-02 0.322D-01
 Coeff-Com:  0.871D-01 0.279D+00 0.596D+00
 Coeff:      0.616D-06 0.779D-06 0.437D-05-0.568D-06 0.426D-06-0.337D-04
 Coeff:     -0.797D-04-0.126D-03-0.349D-03 0.691D-03 0.625D-02 0.322D-01
 Coeff:      0.871D-01 0.279D+00 0.596D+00
 Gap=     0.121 Goal=   None    Shift=    0.000
 RMSDP=8.02D-09 MaxDP=4.04D-07 DE=-1.30D-11 OVMax= 6.04D-07

 Error on total polarization charges =  0.00898
 SCF Done:  E(RB-P86) =  -495.230236068     A.U. after   15 cycles
            NFock= 15  Conv=0.80D-08     -V/T= 2.0032
 KE= 4.936300339270D+02 PE=-2.057556247517D+03 EE= 6.212971475655D+02
 Leave Link  502 at Mon Feb 22 21:12:29 2021, MaxMem=   104857600 cpu:             322.7 elap:              10.3
 (Enter /sw/arch/RedHatEnterpriseServer7/EB_production/2019/software/Gaussian/g16.c01/l601.exe)
 Copying SCF densities to generalized density rwf, IOpCl= 0 IROHF=0.

 **********************************************************************

            Population analysis using the SCF Density.

 **********************************************************************

 Orbital symmetries:
       Occupied  (A) (A) (A) (A) (A) (A) (A) (A) (A) (A) (A) (A)
                 (A) (A) (A) (A) (A) (A) (A) (A) (A) (A) (A) (A)
                 (A) (A) (A) (A) (A) (A) (A) (A) (A) (A)
       Virtual   (A) (A) (A) (A) (A) (A) (A) (A) (A) (A) (A) (A)
                 (A) (A) (A) (A) (A) (A) (A) (A) (A) (A) (A) (A)
                 (A) (A) (A) (A) (A) (A) (A) (A) (A) (A) (A) (A)
                 (A) (A) (A) (A) (A) (A) (A) (A) (A) (A) (A) (A)
                 (A) (A) (A) (A) (A) (A) (A) (A) (A) (A) (A) (A)
                 (A) (A) (A) (A) (A) (A) (A) (A) (A) (A) (A) (A)
                 (A) (A) (A) (A) (A) (A) (A) (A) (A) (A) (A) (A)
                 (A) (A) (A) (A) (A) (A) (A) (A) (A) (A) (A) (A)
                 (A) (A) (A) (A) (A) (A) (A) (A) (A) (A) (A) (A)
                 (A) (A) (A) (A) (A) (A) (A) (A) (A) (A) (A) (A)
                 (A) (A) (A) (A) (A) (A) (A) (A) (A) (A) (A) (A)
                 (A) (A) (A) (A) (A) (A) (A) (A) (A) (A) (A) (A)
                 (A) (A) (A) (A) (A) (A) (A) (A) (A) (A) (A) (A)
                 (A) (A) (A) (A) (A) (A) (A) (A) (A) (A) (A) (A)
                 (A) (A) (A) (A) (A)
 The electronic state is 1-A.
 Alpha  occ. eigenvalues --  -18.82614 -18.81860 -18.76306 -18.76144 -10.04226
 Alpha  occ. eigenvalues --  -10.03737  -9.94183  -9.93219  -9.91167  -1.02247
 Alpha  occ. eigenvalues --   -1.01985  -0.92688  -0.92422  -0.78799  -0.69803
 Alpha  occ. eigenvalues --   -0.63270  -0.59757  -0.55618  -0.49315  -0.45000
 Alpha  occ. eigenvalues --   -0.44690  -0.43290  -0.42939  -0.40954  -0.39928
 Alpha  occ. eigenvalues --   -0.37495  -0.36601  -0.34638  -0.33563  -0.28959
 Alpha  occ. eigenvalues --   -0.28801  -0.27120  -0.24081  -0.23537
 Alpha virt. eigenvalues --   -0.11409  -0.05723   0.00961   0.01740   0.01992
 Alpha virt. eigenvalues --    0.05357   0.07568   0.08898   0.10088   0.12367
 Alpha virt. eigenvalues --    0.13865   0.14031   0.15854   0.16352   0.17728
 Alpha virt. eigenvalues --    0.19388   0.19978   0.21631   0.24953   0.25693
 Alpha virt. eigenvalues --    0.26116   0.27650   0.27911   0.28607   0.30938
 Alpha virt. eigenvalues --    0.31735   0.33451   0.33647   0.34762   0.36057
 Alpha virt. eigenvalues --    0.37365   0.38161   0.39985   0.41280   0.42287
 Alpha virt. eigenvalues --    0.44201   0.44836   0.45988   0.46679   0.47325
 Alpha virt. eigenvalues --    0.48658   0.49632   0.51337   0.52420   0.53507
 Alpha virt. eigenvalues --    0.55177   0.55352   0.57618   0.61028   0.61546
 Alpha virt. eigenvalues --    0.65711   0.67621   0.70151   0.70720   0.73344
 Alpha virt. eigenvalues --    0.75486   0.81917   0.90256   0.91745   1.07636
 Alpha virt. eigenvalues --    1.15034   1.18165   1.18250   1.20726   1.22814
 Alpha virt. eigenvalues --    1.24713   1.25142   1.27403   1.28213   1.30122
 Alpha virt. eigenvalues --    1.30831   1.34481   1.35137   1.36843   1.37710
 Alpha virt. eigenvalues --    1.39227   1.40640   1.42149   1.43734   1.45441
 Alpha virt. eigenvalues --    1.47850   1.51086   1.51952   1.53267   1.54323
 Alpha virt. eigenvalues --    1.57440   1.58502   1.61727   1.64161   1.71049
 Alpha virt. eigenvalues --    1.72753   1.78075   1.81269   1.82321   1.83925
 Alpha virt. eigenvalues --    1.86863   1.90133   1.92305   1.96359   2.04270
 Alpha virt. eigenvalues --    2.04927   2.08818   2.10676   2.14361   2.15669
 Alpha virt. eigenvalues --    2.20112   2.20827   2.21504   2.23626   2.25760
 Alpha virt. eigenvalues --    2.27716   2.34362   2.36422   2.40343   2.44267
 Alpha virt. eigenvalues --    2.46061   2.48234   2.50454   2.51468   2.53193
 Alpha virt. eigenvalues --    2.53804   2.54423   2.55645   2.56415   2.58202
 Alpha virt. eigenvalues --    2.60153   2.60771   2.61753   2.63590   2.66407
 Alpha virt. eigenvalues --    2.67837   2.69132   2.71747   2.75802   2.76642
 Alpha virt. eigenvalues --    2.76837   2.81777   2.86210   2.87826   2.89646
 Alpha virt. eigenvalues --    2.91798   2.94183   2.97777   3.00503   3.03304
 Alpha virt. eigenvalues --    3.06113   3.06746   3.08380   3.10712   3.15606
 Alpha virt. eigenvalues --    3.15829   3.19181   3.22103   3.28185   3.32261
 Alpha virt. eigenvalues --    3.45533   3.46573   3.55514   3.81921   3.87702
 Alpha virt. eigenvalues --    4.00974   4.01302   4.18394   4.21428  21.41823
 Alpha virt. eigenvalues --   21.69707  21.78796  21.83865  21.99061  43.06312
 Alpha virt. eigenvalues --   43.07969  43.13978  43.18550
          Condensed to atoms (all electrons):
               1          2          3          4          5          6
     1  C    5.049415   0.384256  -0.052396  -0.027066  -0.002016  -0.000713
     2  C    0.384256   6.384416   0.115381  -0.049510  -0.021140   0.009018
     3  C   -0.052396   0.115381   5.745587   0.074535  -0.100575  -0.124844
     4  C   -0.027066  -0.049510   0.074535   4.913084   0.610290   0.331186
     5  O   -0.002016  -0.021140  -0.100575   0.610290   7.974233  -0.127746
     6  O   -0.000713   0.009018  -0.124844   0.331186  -0.127746   7.870861
     7  C   -0.010191  -0.272321  -0.231220   0.038859   0.010662   0.016778
     8  O    0.012006  -0.180309   0.014893   0.011945  -0.005742  -0.002018
     9  O    0.032396  -0.202436   0.005455  -0.002353  -0.000010   0.000042
    10  H    0.409977  -0.028276  -0.019853   0.000320   0.000033   0.000181
    11  H    0.399398  -0.004970   0.011833   0.000787   0.000039  -0.000142
    12  H    0.001081  -0.017102   0.439386  -0.073168   0.002433   0.003613
    13  H   -0.018763  -0.072323   0.382642   0.000930   0.005388   0.007091
    14  H    0.000185   0.000304   0.011643  -0.019418   0.002377   0.293425
    15  H   -0.002797   0.025624  -0.000098   0.000083   0.000008   0.000007
               7          8          9         10         11         12
     1  C   -0.010191   0.012006   0.032396   0.409977   0.399398   0.001081
     2  C   -0.272321  -0.180309  -0.202436  -0.028276  -0.004970  -0.017102
     3  C   -0.231220   0.014893   0.005455  -0.019853   0.011833   0.439386
     4  C    0.038859   0.011945  -0.002353   0.000320   0.000787  -0.073168
     5  O    0.010662  -0.005742  -0.000010   0.000033   0.000039   0.002433
     6  O    0.016778  -0.002018   0.000042   0.000181  -0.000142   0.003613
     7  C    5.208014   0.641209   0.423239   0.016730  -0.034415  -0.012114
     8  O    0.641209   7.989066  -0.131223  -0.000326   0.000223   0.002447
     9  O    0.423239  -0.131223   7.872980   0.000511   0.003011   0.000311
    10  H    0.016730  -0.000326   0.000511   0.485933  -0.029274   0.000184
    11  H   -0.034415   0.000223   0.003011  -0.029274   0.485557  -0.000409
    12  H   -0.012114   0.002447   0.000311   0.000184  -0.000409   0.473828
    13  H    0.026693   0.001277   0.000087  -0.000920   0.000813  -0.018943
    14  H   -0.001126  -0.000056   0.000003  -0.000011  -0.000008  -0.000253
    15  H   -0.029644   0.002609   0.298306  -0.000002   0.000189   0.000003
              13         14         15
     1  C   -0.018763   0.000185  -0.002797
     2  C   -0.072323   0.000304   0.025624
     3  C    0.382642   0.011643  -0.000098
     4  C    0.000930  -0.019418   0.000083
     5  O    0.005388   0.002377   0.000008
     6  O    0.007091   0.293425   0.000007
     7  C    0.026693  -0.001126  -0.029644
     8  O    0.001277  -0.000056   0.002609
     9  O    0.000087   0.000003   0.298306
    10  H   -0.000920  -0.000011  -0.000002
    11  H    0.000813  -0.000008   0.000189
    12  H   -0.018943  -0.000253   0.000003
    13  H    0.496250  -0.000679   0.000010
    14  H   -0.000679   0.374969  -0.000000
    15  H    0.000010  -0.000000   0.364961
 Mulliken charges:
               1
     1  C   -0.174771
     2  C   -0.070612
     3  C   -0.272368
     4  C    0.189496
     5  O   -0.348233
     6  O   -0.276736
     7  C    0.208847
     8  O   -0.356002
     9  O   -0.300319
    10  H    0.164791
    11  H    0.167370
    12  H    0.198704
    13  H    0.190447
    14  H    0.338645
    15  H    0.340742
 Sum of Mulliken charges =  -0.00000
 Mulliken charges with hydrogens summed into heavy atoms:
               1
     1  C    0.157390
     2  C   -0.070612
     3  C    0.116782
     4  C    0.189496
     5  O   -0.348233
     6  O    0.061908
     7  C    0.208847
     8  O   -0.356002
     9  O    0.040423
 Electronic spatial extent (au):  <R**2>=           1191.2365
 Charge=             -0.0000 electrons
 Dipole moment (field-independent basis, Debye):
    X=             -2.4687    Y=              4.7458    Z=              1.6624  Tot=              5.6019
 Quadrupole moment (field-independent basis, Debye-Ang):
   XX=            -47.1443   YY=            -52.3898   ZZ=            -47.4154
   XY=              6.9618   XZ=              3.9077   YZ=             -6.5265
 Traceless Quadrupole moment (field-independent basis, Debye-Ang):
   XX=              1.8389   YY=             -3.4066   ZZ=              1.5677
   XY=              6.9618   XZ=              3.9077   YZ=             -6.5265
 Octapole moment (field-independent basis, Debye-Ang**2):
  XXX=            -25.1080  YYY=             16.4851  ZZZ=             12.0684  XYY=            -16.8534
  XXY=             -4.6698  XXZ=             28.5177  XZZ=             11.2779  YZZ=             -4.9353
  YYZ=              4.8868  XYZ=             -1.6976
 Hexadecapole moment (field-independent basis, Debye-Ang**3):
 XXXX=           -815.5632 YYYY=           -375.5143 ZZZZ=           -152.5496 XXXY=             95.8133
 XXXZ=             38.1598 YYYX=             11.4015 YYYZ=            -14.3690 ZZZX=             28.0852
 ZZZY=             -3.9485 XXYY=           -189.8177 XXZZ=           -141.0808 YYZZ=            -96.8481
 XXYZ=            -26.8656 YYXZ=            -12.4022 ZZXY=              7.3261
 N-N= 4.473988299562D+02 E-N=-2.057556253251D+03  KE= 4.936300339270D+02
 No NMR shielding tensors so no spin-rotation constants.
 Leave Link  601 at Mon Feb 22 21:12:30 2021, MaxMem=   104857600 cpu:               3.4 elap:               0.1
 (Enter /sw/arch/RedHatEnterpriseServer7/EB_production/2019/software/Gaussian/g16.c01/l701.exe)
 ... and contract with generalized density number  0.
 Compute integral first derivatives.
 R6Disp: Adding Grimme-D3 dispersion energy 1st derivatives to the gradient.
 PrsmSu:  requested number of processors reduced to:  29 ShMem   1 Linda.
 D1PCM: PCM CHGder 1st derivatives, ID1Alg=3 FixD1E=F DoIter=F DoCFld=F I1PDM=0.
 GePol: Maximum number of non-zero 1st derivatives   =     219
 CoulSu:  requested number of processors reduced to:  29 ShMem   1 Linda.
 CoulSu:  requested number of processors reduced to:  30 ShMem   1 Linda.
 Leave Link  701 at Mon Feb 22 21:12:31 2021, MaxMem=   104857600 cpu:              20.5 elap:               0.7
 (Enter /sw/arch/RedHatEnterpriseServer7/EB_production/2019/software/Gaussian/g16.c01/l702.exe)
 L702 exits ... SP integral derivatives will be done elsewhere.
 Leave Link  702 at Mon Feb 22 21:12:31 2021, MaxMem=   104857600 cpu:               0.8 elap:               0.1
 (Enter /sw/arch/RedHatEnterpriseServer7/EB_production/2019/software/Gaussian/g16.c01/l703.exe)
 Integral derivatives from FoFJK, PRISM(SPDF).
 Compute integral first derivatives, UseDBF=F ICtDFT=           0.
 Calling FoFJK, ICntrl=      2527 FMM=F ISym2X=0 I1Cent= 0 IOpClX= 0 NMat=1 NMatS=1 NMatT=0.
 FoFJK:  IHMeth= 1 ICntrl=    2527 DoSepK=F KAlg= 0 I1Cent=           0 FoldK=F
 IRaf=         0 NMat=       1 IRICut=       1 DoRegI=T DoRafI=F ISym2E= 0 IDoP0=0 IntGTp=1.
 FoFCou: FMM=F IPFlag=           0 FMFlag=      100000 FMFlg1=         800
         NFxFlg=           0 DoJE=F BraDBF=F KetDBF=F FulRan=T
         wScrn=  0.000000 ICntrl=      2527 IOpCl=  0 I1Cent=           0 NGrid=           0
         NMat0=    1 NMatS0=      1 NMatT0=    0 NMatD0=    1 NMtDS0=    0 NMtDT0=    0
 Symmetry not used in FoFCou.
 Leave Link  703 at Mon Feb 22 21:12:33 2021, MaxMem=   104857600 cpu:              37.9 elap:               1.2
 (Enter /sw/arch/RedHatEnterpriseServer7/EB_production/2019/software/Gaussian/g16.c01/l716.exe)
 Dipole        =-9.71280702D-01 1.86715533D+00 6.54047290D-01
 ***** Axes restored to original set *****
 -------------------------------------------------------------------
 Center     Atomic                   Forces (Hartrees/Bohr)
 Number     Number              X              Y              Z
 -------------------------------------------------------------------
      1        6           0.070077314    0.022493961   -0.028966857
      2        6          -0.051648472   -0.025299446    0.035941473
      3        6           0.000464890    0.001408865    0.009301280
      4        6           0.090276347   -0.003575397   -0.024829850
      5        8          -0.025930463   -0.005719956    0.007411156
      6        8          -0.043088057   -0.000470167    0.009441293
      7        6           0.053548446    0.045961911   -0.089565089
      8        8          -0.005333875   -0.007672926    0.017026291
      9        8          -0.041100668   -0.018095298    0.023502093
     10        1          -0.010068720   -0.032089836    0.078514334
     11        1          -0.066692101    0.009048897   -0.051473073
     12        1           0.009064199   -0.001479926   -0.001557159
     13        1          -0.007912070   -0.001065247    0.003284951
     14        1           0.009930288    0.015688223    0.002791348
     15        1           0.018412943    0.000866342    0.009177809
 -------------------------------------------------------------------
 Cartesian Forces:  Max     0.090276347 RMS     0.034573561
 Leave Link  716 at Mon Feb 22 21:12:33 2021, MaxMem=   104857600 cpu:               0.8 elap:               0.1
 (Enter /sw/arch/RedHatEnterpriseServer7/EB_production/2019/software/Gaussian/g16.c01/l103.exe)

 GradGradGradGradGradGradGradGradGradGradGradGradGradGradGradGradGradGrad
 Berny optimization.
 FormGI is forming the generalized inverse of G from B-inverse, IUseBI=4.
 Internal  Forces:  Max     0.085376918 RMS     0.021679028
 Search for a local minimum.
 Step number   1 out of a maximum of   68
 All quantities printed in internal units (Hartrees-Bohrs-Radians)
 RMS Force = .21679D-01 SwitMx=.10000D-02 MixMth= 1
 Mixed Optimization -- RFO/linear search
 Second derivative matrix not updated -- first step.
 ITU=  0
     Eigenvalues ---    0.01072   0.01128   0.01374   0.01861   0.02063
     Eigenvalues ---    0.02123   0.02257   0.02326   0.02758   0.02758
     Eigenvalues ---    0.05179   0.06699   0.10221   0.13393   0.16000
     Eigenvalues ---    0.16000   0.16000   0.16000   0.21965   0.24999
     Eigenvalues ---    0.24999   0.25000   0.25000   0.25000   0.25000
     Eigenvalues ---    0.34313   0.34442   0.34933   0.35431   0.45302
     Eigenvalues ---    0.48802   0.48939   0.51571   0.51655   0.53503
     Eigenvalues ---    0.54584   0.55144   0.82041   0.82483
 RFO step:  Lambda=-6.47961599D-02 EMin= 1.07220483D-02
 Linear search not attempted -- first point.
 Maximum step size (   0.300) exceeded in Quadratic search.
    -- Step size scaled by   0.717
 Iteration  1 RMS(Cart)=  0.04673976 RMS(Int)=  0.00130552
 Iteration  2 RMS(Cart)=  0.00181722 RMS(Int)=  0.00008622
 Iteration  3 RMS(Cart)=  0.00000039 RMS(Int)=  0.00008622
 ITry= 1 IFail=0 DXMaxC= 1.25D-01 DCOld= 1.00D+10 DXMaxT= 3.00D-01 DXLimC= 3.00D+00 Rises=F
 Variable       Old X    -DE/DX   Delta X   Delta X   Delta X     New X
                                 (Linear)    (Quad)   (Total)
    R1        2.55004   0.00563   0.00000   0.00656   0.00656   2.55660
    R2        1.87651   0.08538   0.00000   0.11046   0.11046   1.98697
    R3        1.87794   0.08467   0.00000   0.10982   0.10982   1.98777
    R4        2.78282   0.02876   0.00000   0.04921   0.04921   2.83202
    R5        2.64926   0.04771   0.00000   0.06607   0.06607   2.71534
    R6        2.79084   0.02007   0.00000   0.03475   0.03475   2.82559
    R7        2.06805   0.00195   0.00000   0.00343   0.00343   2.07148
    R8        2.06590   0.00543   0.00000   0.00952   0.00952   2.07542
    R9        2.36604  -0.02713   0.00000  -0.02186  -0.02186   2.34418
   R10        2.55504  -0.00957   0.00000  -0.01123  -0.01123   2.54381
   R11        1.85013  -0.00362   0.00000  -0.00447  -0.00447   1.84566
   R12        2.36833  -0.01275   0.00000  -0.01033  -0.01033   2.35800
   R13        2.56487  -0.00555   0.00000  -0.00664  -0.00664   2.55823
   R14        1.84931  -0.00515   0.00000  -0.00636  -0.00636   1.84296
    A1        2.12088  -0.00150   0.00000  -0.00477  -0.00478   2.11611
    A2        2.12857  -0.00209   0.00000  -0.00665  -0.00665   2.12192
    A3        2.03373   0.00358   0.00000   0.01143   0.01143   2.04516
    A4        2.08694   0.01218   0.00000   0.02774   0.02773   2.11468
    A5        2.09725   0.00117   0.00000   0.00266   0.00265   2.09990
    A6        2.09896  -0.01335   0.00000  -0.03041  -0.03041   2.06855
    A7        1.97047   0.00860   0.00000   0.02128   0.02132   1.99179
    A8        1.89941   0.00589   0.00000   0.02539   0.02561   1.92503
    A9        1.95521  -0.01009   0.00000  -0.03440  -0.03434   1.92087
   A10        1.92263  -0.01112   0.00000  -0.03690  -0.03700   1.88562
   A11        1.85435   0.00347   0.00000   0.01418   0.01435   1.86870
   A12        1.85837   0.00251   0.00000   0.00826   0.00849   1.86686
   A13        2.11388   0.01435   0.00000   0.03269   0.03266   2.14655
   A14        2.09985  -0.03775   0.00000  -0.08600  -0.08603   2.01382
   A15        2.06945   0.02340   0.00000   0.05328   0.05326   2.12271
   A16        2.09416  -0.03408   0.00000  -0.10869  -0.10869   1.98547
   A17        2.13121   0.00136   0.00000   0.00310   0.00310   2.13431
   A18        2.13327  -0.03741   0.00000  -0.08521  -0.08521   2.04806
   A19        2.01870   0.03605   0.00000   0.08212   0.08212   2.10082
   A20        2.10135  -0.03686   0.00000  -0.11756  -0.11756   1.98379
    D1       -0.00634  -0.00019   0.00000  -0.00146  -0.00148  -0.00782
    D2       -3.13959   0.00019   0.00000   0.00147   0.00149  -3.13810
    D3        3.13715  -0.00058   0.00000  -0.00445  -0.00447   3.13268
    D4        0.00390  -0.00019   0.00000  -0.00152  -0.00150   0.00240
    D5        2.07675   0.00247   0.00000   0.00734   0.00713   2.08387
    D6       -2.06606  -0.00169   0.00000  -0.00719  -0.00700  -2.07306
    D7       -0.01592  -0.00087   0.00000  -0.00139  -0.00137  -0.01729
    D8       -1.07320   0.00215   0.00000   0.00457   0.00436  -1.06884
    D9        1.06718  -0.00201   0.00000  -0.00996  -0.00977   1.05742
   D10        3.11732  -0.00119   0.00000  -0.00415  -0.00413   3.11319
   D11        3.09229  -0.00009   0.00000  -0.00089  -0.00085   3.09144
   D12       -0.05416   0.00020   0.00000   0.00139   0.00140  -0.05276
   D13       -0.04090   0.00018   0.00000   0.00177   0.00176  -0.03914
   D14        3.09584   0.00047   0.00000   0.00405   0.00402   3.09985
   D15        2.15471   0.00536   0.00000   0.03142   0.03121   2.18592
   D16       -0.98954   0.00396   0.00000   0.01857   0.01839  -0.97114
   D17        0.02734  -0.00014   0.00000   0.01069   0.01077   0.03812
   D18       -3.11690  -0.00155   0.00000  -0.00216  -0.00204  -3.11895
   D19       -1.97876   0.00050   0.00000   0.01149   0.01156  -1.96720
   D20        1.16018  -0.00090   0.00000  -0.00136  -0.00126   1.15893
   D21        3.12803   0.00080   0.00000   0.00720   0.00725   3.13528
   D22       -0.01615  -0.00058   0.00000  -0.00535  -0.00540  -0.02155
   D23        3.14097  -0.00024   0.00000  -0.00211  -0.00213   3.13884
   D24       -0.00518  -0.00004   0.00000  -0.00014  -0.00012  -0.00530
         Item               Value     Threshold  Converged?
 Maximum Force            0.085377     0.000450     NO 
 RMS     Force            0.021679     0.000300     NO 
 Maximum Displacement     0.124835     0.001800     NO 
 RMS     Displacement     0.047252     0.001200     NO 
 Predicted change in Energy=-3.278051D-02
 Lowest energy point so far.  Saving SCF results.
 GradGradGradGradGradGradGradGradGradGradGradGradGradGradGradGradGradGrad

 Leave Link  103 at Mon Feb 22 21:12:33 2021, MaxMem=   104857600 cpu:               3.8 elap:               0.2
 (Enter /sw/arch/RedHatEnterpriseServer7/EB_production/2019/software/Gaussian/g16.c01/l202.exe)
                          Input orientation:                          
 ---------------------------------------------------------------------
 Center     Atomic      Atomic             Coordinates (Angstroms)
 Number     Number       Type             X           Y           Z
 ---------------------------------------------------------------------
      1          6           0       -2.026939    0.858219    0.442346
      2          6           0       -0.788742    1.222449    0.036734
      3          6           0        0.397413    1.077801    0.941190
      4          6           0        1.462445    0.171497    0.411989
      5          8           0        2.645121    0.522645    0.282471
      6          8           0        1.057182   -1.072989    0.097240
      7          6           0       -0.587915    1.772499   -1.275431
      8          8           0        0.528074    2.169034   -1.668286
      9          8           0       -1.666334    1.846512   -2.090413
     10          1           0       -2.191028    0.457156    1.400361
     11          1           0       -2.865202    0.964264   -0.184170
     12          1           0        0.850204    2.057290    1.134046
     13          1           0        0.083215    0.673165    1.912651
     14          1           0        1.769987   -1.642662   -0.251027
     15          1           0       -1.470109    2.229861   -2.965431
 ---------------------------------------------------------------------
                    Distance matrix (angstroms):
                    1          2          3          4          5
     1  C    0.000000
     2  C    1.352892   0.000000
     3  C    2.484864   1.498642   0.000000
     4  C    3.556447   2.512601   1.495237   0.000000
     5  O    4.686824   3.513052   2.407135   1.240485   0.000000
     6  O    3.655197   2.946207   2.402799   1.346124   2.258741
     7  C    2.420218   1.436894   2.523269   3.100737   3.800226
     8  O    3.563860   2.353108   2.831471   3.031625   3.316315
     9  O    2.742558   2.384193   3.747077   4.342459   5.096258
    10  H    1.051461   2.100371   2.701123   3.795570   4.964102
    11  H    1.051880   2.104078   3.453112   4.439867   5.547652
    12  H    3.192832   2.141774   1.096181   2.110076   2.510387
    13  H    2.578526   2.140347   1.098265   2.099031   3.040313
    14  H    4.599111   3.852111   3.272042   1.955849   2.395628
    15  H    3.715427   3.239156   4.480688   4.923789   5.513490
                    6          7          8          9         10
     6  O    0.000000
     7  C    3.561934   0.000000
     8  O    3.729310   1.247800   0.000000
     9  O    4.552675   1.353758   2.257795   0.000000
    10  H    3.819730   3.385257   4.443044   3.793562   0.000000
    11  H    4.428847   2.651440   3.894662   2.418555   1.795106
    12  H    3.304006   2.820439   2.822998   4.095672   3.446802
    13  H    2.700626   3.438432   3.906230   4.523514   2.341214
    14  H    0.976682   4.274626   4.252058   5.231250   4.777652
    15  H    5.164878   1.960496   2.383070   0.975252   4.766796
                   11         12         13         14         15
    11  H    0.000000
    12  H    4.091044   0.000000
    13  H    3.629677   1.763604   0.000000
    14  H    5.318412   4.056362   3.590230   0.000000
    15  H    3.359082   4.713740   5.350869   5.732595   0.000000
 Stoichiometry    C5H6O4
 Framework group  C1[X(C5H6O4)]
 Deg. of freedom    39
 Full point group                 C1      NOp   1
 RotChk:  IX=0 Diff= 3.91D-02
 Largest Abelian subgroup         C1      NOp   1
 Largest concise Abelian subgroup C1      NOp   1
                         Standard orientation:                         
 ---------------------------------------------------------------------
 Center     Atomic      Atomic             Coordinates (Angstroms)
 Number     Number       Type             X           Y           Z
 ---------------------------------------------------------------------
      1          6           0       -1.320154    1.846783   -0.125488
      2          6           0       -0.679011    0.674498   -0.337622
      3          6           0        0.708005    0.640639   -0.904163
      4          6           0        1.719839    0.004956   -0.005368
      5          8           0        2.441537   -0.938923   -0.361805
      6          8           0        1.814035    0.539360    1.226537
      7          6           0       -1.326671   -0.571696   -0.033977
      8          8           0       -0.790617   -1.674802   -0.263777
      9          8           0       -2.559209   -0.512472    0.522804
     10          1           0       -0.861294    2.766930   -0.345368
     11          1           0       -2.296611    1.877859    0.264405
     12          1           0        0.715782    0.101778   -1.858721
     13          1           0        1.055902    1.661840   -1.109839
     14          1           0        2.477506    0.102952    1.795099
     15          1           0       -2.949293   -1.387739    0.704072
 ---------------------------------------------------------------------
 Rotational constants (GHZ):           2.6522102           1.1863198           0.9842997
 Leave Link  202 at Mon Feb 22 21:12:33 2021, MaxMem=   104857600 cpu:               0.9 elap:               0.1
 (Enter /sw/arch/RedHatEnterpriseServer7/EB_production/2019/software/Gaussian/g16.c01/l301.exe)
 Standard basis: TZVP (5D, 7F)
 Ernie: Thresh=  0.10000D-02 Tol=  0.10000D-05 Strict=F.
 There are   216 symmetry adapted cartesian basis functions of A   symmetry.
 There are   207 symmetry adapted basis functions of A   symmetry.
   207 basis functions,   363 primitive gaussians,   216 cartesian basis functions
    34 alpha electrons       34 beta electrons
       nuclear repulsion energy       445.3052887036 Hartrees.
 IExCor=  404 DFT=T Ex=B Corr=P86 ExCW=0 ScaHFX=  0.000000
 ScaDFX=  1.000000  1.000000  1.000000  1.000000 ScalE2=  1.000000  1.000000
 IRadAn=      5 IRanWt=     -1 IRanGd=            0 ICorTp=0 IEmpDi=131
 NAtoms=   15 NActive=   15 NUniq=   15 SFac= 1.00D+00 NAtFMM=   60 NAOKFM=F Big=F
 Integral buffers will be    131072 words long.
 Raffenetti 2 integral format.
 Two-electron integral symmetry is turned on.
 R6Disp:  Grimme-D3 Dispersion energy=       -0.0132900369 Hartrees.
 Nuclear repulsion after empirical dispersion term =      445.2919986667 Hartrees.
 ------------------------------------------------------------------------------
 Polarizable Continuum Model (PCM)
 =================================
 Model                : PCM.
 Atomic radii         : UFF (Universal Force Field).
 Polarization charges : Total charges.
 Charge compensation  : None.
 Solution method      : On-the-fly selection.
 Cavity type          : Scaled VdW (van der Waals Surface) (Alpha=1.100).
 Cavity algorithm     : GePol (No added spheres)
                        Default sphere list used, NSphG=   15.
                        Lebedev-Laikov grids with approx.  5.0 points / Ang**2.
                        Smoothing algorithm: York/Karplus (Gamma=1.0000).
                        Polarization charges: spherical gaussians, with
                                              point-specific exponents (IZeta= 3).
                        Self-potential: point-specific (ISelfS= 7).
                        Self-field    : sphere-specific E.n sum rule (ISelfD= 2).
 1st derivatives      : Analytical E(r).r(x)/FMM algorithm (CHGder, D1EAlg=3).
                        Cavity 1st derivative terms included.
 Solvent              : Water, Eps=  78.355300 Eps(inf)=   1.777849
 ------------------------------------------------------------------------------
 Spheres list:
 ISph  on   Nord     Re0    Alpha      Xe            Ye            Ze
    1   C      1    1.9255  1.100     -1.320154      1.846783     -0.125488
    2   C      2    1.9255  1.100     -0.679011      0.674498     -0.337622
    3   C      3    1.9255  1.100      0.708005      0.640639     -0.904163
    4   C      4    1.9255  1.100      1.719839      0.004956     -0.005368
    5   O      5    1.7500  1.100      2.441537     -0.938923     -0.361805
    6   O      6    1.7500  1.100      1.814035      0.539360      1.226537
    7   C      7    1.9255  1.100     -1.326671     -0.571696     -0.033977
    8   O      8    1.7500  1.100     -0.790617     -1.674802     -0.263777
    9   O      9    1.7500  1.100     -2.559209     -0.512472      0.522804
   10   H     10    1.4430  1.100     -0.861294      2.766930     -0.345368
   11   H     11    1.4430  1.100     -2.296611      1.877859      0.264405
   12   H     12    1.4430  1.100      0.715782      0.101778     -1.858721
   13   H     13    1.4430  1.100      1.055902      1.661840     -1.109839
   14   H     14    1.4430  1.100      2.477506      0.102952      1.795099
   15   H     15    1.4430  1.100     -2.949293     -1.387739      0.704072
 ------------------------------------------------------------------------------
 GePol: Number of generator spheres                  =      15
 GePol: Total number of spheres                      =      15
 GePol: Number of exposed spheres                    =      15 (100.00%)
 GePol: Number of points                             =    1379
 GePol: Average weight of points                     =       0.13
 GePol: Minimum weight of points                     =   0.55D-08
 GePol: Maximum weight of points                     =    0.20577
 GePol: Number of points with low weight             =      71
 GePol: Fraction of low-weight points (<1% of avg)   =       5.15%
 GePol: Cavity surface area                          =    185.778 Ang**2
 GePol: Cavity volume                                =    178.106 Ang**3
 Leave Link  301 at Mon Feb 22 21:12:33 2021, MaxMem=   104857600 cpu:               1.8 elap:               0.1
 (Enter /sw/arch/RedHatEnterpriseServer7/EB_production/2019/software/Gaussian/g16.c01/l302.exe)
 NPDir=0 NMtPBC=     1 NCelOv=     1 NCel=       1 NClECP=     1 NCelD=      1
         NCelK=      1 NCelE2=     1 NClLst=     1 CellRange=     0.0.
 One-electron integrals computed using PRISM.
 One-electron integral symmetry used in STVInt
 PrsmSu:  requested number of processors reduced to:  29 ShMem   1 Linda.
 NBasis=   207 RedAO= T EigKep=  1.82D-04  NBF=   207
 NBsUse=   207 1.00D-06 EigRej= -1.00D+00 NBFU=   207
 Precomputing XC quadrature grid using
 IXCGrd= 4 IRadAn=           5 IRanWt=          -1 IRanGd=           0 AccXCQ= 0.00D+00.
 Generated NRdTot=       0 NPtTot=           0 NUsed=           0 NTot=          32
 NSgBfM=   214   214   214   214   214 MxSgAt=    15 MxSgA2=    15.
 Leave Link  302 at Mon Feb 22 21:12:33 2021, MaxMem=   104857600 cpu:               5.8 elap:               0.2
 (Enter /sw/arch/RedHatEnterpriseServer7/EB_production/2019/software/Gaussian/g16.c01/l303.exe)
 DipDrv:  MaxL=1.
 Leave Link  303 at Mon Feb 22 21:12:34 2021, MaxMem=   104857600 cpu:               0.9 elap:               0.1
 (Enter /sw/arch/RedHatEnterpriseServer7/EB_production/2019/software/Gaussian/g16.c01/l401.exe)
 Initial guess from the checkpoint file:  "LVHBHZANLOWSRM-UHFFFAOYSA-N.chk"
 B after Tr=     0.000000    0.000000    0.000000
         Rot=    0.999884    0.011442    0.004273   -0.009107 Ang=   1.75 deg.
 Guess basis will be translated and rotated to current coordinates.
 JPrj=2 DoOrth=T DoCkMO=T.
 Generating alternative initial guess.
 ExpMin= 9.52D-02 ExpMax= 2.70D+04 ExpMxC= 9.22D+02 IAcc=3 IRadAn=         5 AccDes= 0.00D+00
 Harris functional with IExCor=  404 and IRadAn=       5 diagonalized for initial guess.
 HarFok:  IExCor=  404 AccDes= 0.00D+00 IRadAn=         5 IDoV= 1 UseB2=F ITyADJ=14
 ICtDFT=  3500011 ScaDFX=  1.000000  1.000000  1.000000  1.000000
 FoFCou: FMM=F IPFlag=           0 FMFlag=      100000 FMFlg1=           0
         NFxFlg=           0 DoJE=T BraDBF=F KetDBF=T FulRan=T
         wScrn=  0.000000 ICntrl=       500 IOpCl=  0 I1Cent=   200000004 NGrid=           0
         NMat0=    1 NMatS0=      1 NMatT0=    0 NMatD0=    1 NMtDS0=    0 NMtDT0=    0
 Petite list used in FoFCou.
 Harris En= -495.385380498323    
 Leave Link  401 at Mon Feb 22 21:12:34 2021, MaxMem=   104857600 cpu:              11.2 elap:               0.4
 (Enter /sw/arch/RedHatEnterpriseServer7/EB_production/2019/software/Gaussian/g16.c01/l502.exe)
 Integral symmetry usage will be decided dynamically.
 Closed shell SCF:
 Using DIIS extrapolation, IDIIS=  1040.
 NGot=   104857600 LenX=   104754792 LenY=   104707695
 Requested convergence on RMS density matrix=1.00D-08 within 128 cycles.
 Requested convergence on MAX density matrix=1.00D-06.
 Requested convergence on             energy=1.00D-06.
 No special actions if energy rises.
 Fock matrices will be formed incrementally for  20 cycles.

 Cycle   1  Pass 1  IDiag  1:
 FoFJK:  IHMeth= 1 ICntrl=     500 DoSepK=F KAlg= 0 I1Cent=           0 FoldK=F
 IRaf= 930000000 NMat=       1 IRICut=       1 DoRegI=T DoRafI=F ISym2E= 0 IDoP0=0 IntGTp=1.
 FoFCou: FMM=F IPFlag=           0 FMFlag=      100000 FMFlg1=           0
         NFxFlg=           0 DoJE=T BraDBF=F KetDBF=F FulRan=T
         wScrn=  0.000000 ICntrl=       500 IOpCl=  0 I1Cent=           0 NGrid=           0
         NMat0=    1 NMatS0=      1 NMatT0=    0 NMatD0=    1 NMtDS0=    0 NMtDT0=    0
 Symmetry not used in FoFCou.
 Inv3:  Mode=1 IEnd=     5704923.
 Iteration    1 A*A^-1 deviation from unit magnitude is 3.77D-15 for    595.
 Iteration    1 A*A^-1 deviation from orthogonality  is 2.29D-15 for    459      9.
 Iteration    1 A^-1*A deviation from unit magnitude is 3.11D-15 for    595.
 Iteration    1 A^-1*A deviation from orthogonality  is 1.78D-15 for   1093    883.
 E= -495.256314841403    
 DIIS: error= 2.16D-03 at cycle   1 NSaved=   1.
 NSaved= 1 IEnMin= 1 EnMin= -495.256314841403     IErMin= 1 ErrMin= 2.16D-03
 ErrMax= 2.16D-03  0.00D+00 EMaxC= 1.00D-01 BMatC= 5.21D-03 BMatP= 5.21D-03
 IDIUse=3 WtCom= 9.78D-01 WtEn= 2.16D-02
 Coeff-Com:  0.100D+01
 Coeff-En:   0.100D+01
 Coeff:      0.100D+01
 Gap=     0.606 Goal=   None    Shift=    0.000
 GapD=    0.606 DampG=2.000 DampE=1.000 DampFc=2.0000 IDamp=-1.
 RMSDP=1.34D-03 MaxDP=6.44D-02              OVMax= 2.07D-02

 Cycle   2  Pass 1  IDiag  1:
 RMSU=  1.29D-03    CP:  9.77D-01
 E= -495.260355594454     Delta-E=       -0.004040753051 Rises=F Damp=F
 DIIS: error= 2.76D-03 at cycle   2 NSaved=   2.
 NSaved= 2 IEnMin= 2 EnMin= -495.260355594454     IErMin= 1 ErrMin= 2.16D-03
 ErrMax= 2.76D-03  0.00D+00 EMaxC= 1.00D-01 BMatC= 2.80D-03 BMatP= 5.21D-03
 IDIUse=3 WtCom= 9.72D-01 WtEn= 2.76D-02
 Coeff-Com:  0.383D+00 0.617D+00
 Coeff-En:   0.000D+00 0.100D+01
 Coeff:      0.372D+00 0.628D+00
 Gap=     0.126 Goal=   None    Shift=    0.000
 RMSDP=6.52D-04 MaxDP=2.72D-02 DE=-4.04D-03 OVMax= 3.47D-02

 Cycle   3  Pass 1  IDiag  1:
 RMSU=  5.47D-04    CP:  9.88D-01  7.62D-01
 E= -495.257877123068     Delta-E=        0.002478471386 Rises=F Damp=F
 DIIS: error= 5.05D-03 at cycle   3 NSaved=   3.
 NSaved= 3 IEnMin= 2 EnMin= -495.260355594454     IErMin= 1 ErrMin= 2.16D-03
 ErrMax= 5.05D-03  0.00D+00 EMaxC= 1.00D-01 BMatC= 6.08D-03 BMatP= 2.80D-03
 IDIUse=3 WtCom= 1.23D-01 WtEn= 8.77D-01
 Coeff-Com:  0.454D-01 0.577D+00 0.378D+00
 Coeff-En:   0.000D+00 0.627D+00 0.373D+00
 Coeff:      0.560D-02 0.621D+00 0.373D+00
 Gap=     0.130 Goal=   None    Shift=    0.000
 RMSDP=3.89D-04 MaxDP=1.71D-02 DE= 2.48D-03 OVMax= 2.15D-02

 Cycle   4  Pass 1  IDiag  1:
 RMSU=  9.90D-05    CP:  9.81D-01  8.91D-01  4.16D-01
 E= -495.262410850733     Delta-E=       -0.004533727665 Rises=F Damp=F
 DIIS: error= 7.19D-04 at cycle   4 NSaved=   4.
 NSaved= 4 IEnMin= 4 EnMin= -495.262410850733     IErMin= 4 ErrMin= 7.19D-04
 ErrMax= 7.19D-04  0.00D+00 EMaxC= 1.00D-01 BMatC= 1.71D-04 BMatP= 2.80D-03
 IDIUse=3 WtCom= 9.93D-01 WtEn= 7.19D-03
 Coeff-Com:  0.785D-02 0.359D+00 0.207D+00 0.426D+00
 Coeff-En:   0.000D+00 0.261D-01 0.000D+00 0.974D+00
 Coeff:      0.779D-02 0.356D+00 0.205D+00 0.430D+00
 Gap=     0.133 Goal=   None    Shift=    0.000
 RMSDP=7.70D-05 MaxDP=2.30D-03 DE=-4.53D-03 OVMax= 4.45D-03

 Cycle   5  Pass 1  IDiag  1:
 RMSU=  3.75D-05    CP:  9.81D-01  9.17D-01  3.56D-01  5.34D-01
 E= -495.262562137070     Delta-E=       -0.000151286337 Rises=F Damp=F
 DIIS: error= 1.90D-04 at cycle   5 NSaved=   5.
 NSaved= 5 IEnMin= 5 EnMin= -495.262562137070     IErMin= 5 ErrMin= 1.90D-04
 ErrMax= 1.90D-04  0.00D+00 EMaxC= 1.00D-01 BMatC= 1.30D-05 BMatP= 1.71D-04
 IDIUse=3 WtCom= 9.98D-01 WtEn= 1.90D-03
 Coeff-Com:  0.145D-02 0.162D+00 0.927D-01 0.268D+00 0.476D+00
 Coeff-En:   0.000D+00 0.000D+00 0.000D+00 0.000D+00 0.100D+01
 Coeff:      0.145D-02 0.162D+00 0.925D-01 0.268D+00 0.477D+00
 Gap=     0.132 Goal=   None    Shift=    0.000
 RMSDP=2.03D-05 MaxDP=8.00D-04 DE=-1.51D-04 OVMax= 1.23D-03

 Cycle   6  Pass 1  IDiag  1:
 RMSU=  1.12D-05    CP:  9.81D-01  9.12D-01  3.63D-01  5.54D-01  6.10D-01
 E= -495.262569610004     Delta-E=       -0.000007472935 Rises=F Damp=F
 DIIS: error= 1.01D-04 at cycle   6 NSaved=   6.
 NSaved= 6 IEnMin= 6 EnMin= -495.262569610004     IErMin= 6 ErrMin= 1.01D-04
 ErrMax= 1.01D-04  0.00D+00 EMaxC= 1.00D-01 BMatC= 2.83D-06 BMatP= 1.30D-05
 IDIUse=3 WtCom= 9.99D-01 WtEn= 1.01D-03
 Coeff-Com:  0.213D-03 0.704D-01 0.411D-01 0.141D+00 0.344D+00 0.403D+00
 Coeff-En:   0.000D+00 0.000D+00 0.000D+00 0.000D+00 0.173D+00 0.827D+00
 Coeff:      0.213D-03 0.703D-01 0.410D-01 0.141D+00 0.344D+00 0.403D+00
 Gap=     0.132 Goal=   None    Shift=    0.000
 RMSDP=8.93D-06 MaxDP=2.80D-04 DE=-7.47D-06 OVMax= 5.36D-04

 Cycle   7  Pass 1  IDiag  1:
 RMSU=  5.47D-06    CP:  9.81D-01  9.12D-01  3.67D-01  5.44D-01  6.36D-01
                    CP:  4.37D-01
 E= -495.262571637185     Delta-E=       -0.000002027180 Rises=F Damp=F
 DIIS: error= 4.06D-05 at cycle   7 NSaved=   7.
 NSaved= 7 IEnMin= 7 EnMin= -495.262571637185     IErMin= 7 ErrMin= 4.06D-05
 ErrMax= 4.06D-05  0.00D+00 EMaxC= 1.00D-01 BMatC= 3.63D-07 BMatP= 2.83D-06
 IDIUse=1 WtCom= 1.00D+00 WtEn= 0.00D+00
 Coeff-Com: -0.575D-04 0.329D-01 0.195D-01 0.733D-01 0.191D+00 0.290D+00
 Coeff-Com:  0.393D+00
 Coeff:     -0.575D-04 0.329D-01 0.195D-01 0.733D-01 0.191D+00 0.290D+00
 Coeff:      0.393D+00
 Gap=     0.132 Goal=   None    Shift=    0.000
 RMSDP=3.76D-06 MaxDP=1.62D-04 DE=-2.03D-06 OVMax= 1.66D-04

 Cycle   8  Pass 1  IDiag  1:
 RMSU=  2.01D-06    CP:  9.81D-01  9.12D-01  3.67D-01  5.57D-01  6.29D-01
                    CP:  5.40D-01  5.35D-01
 E= -495.262571857210     Delta-E=       -0.000000220025 Rises=F Damp=F
 DIIS: error= 9.76D-06 at cycle   8 NSaved=   8.
 NSaved= 8 IEnMin= 8 EnMin= -495.262571857210     IErMin= 8 ErrMin= 9.76D-06
 ErrMax= 9.76D-06  0.00D+00 EMaxC= 1.00D-01 BMatC= 2.62D-08 BMatP= 3.63D-07
 IDIUse=1 WtCom= 1.00D+00 WtEn= 0.00D+00
 Coeff-Com: -0.553D-04 0.670D-02 0.402D-02 0.184D-01 0.499D-01 0.103D+00
 Coeff-Com:  0.250D+00 0.568D+00
 Coeff:     -0.553D-04 0.670D-02 0.402D-02 0.184D-01 0.499D-01 0.103D+00
 Coeff:      0.250D+00 0.568D+00
 Gap=     0.132 Goal=   None    Shift=    0.000
 RMSDP=8.30D-07 MaxDP=2.45D-05 DE=-2.20D-07 OVMax= 8.25D-05

 Cycle   9  Pass 1  IDiag  1:
 RMSU=  5.05D-07    CP:  9.81D-01  9.12D-01  3.67D-01  5.58D-01  6.35D-01
                    CP:  5.34D-01  5.76D-01  7.25D-01
 E= -495.262571876329     Delta-E=       -0.000000019119 Rises=F Damp=F
 DIIS: error= 3.49D-06 at cycle   9 NSaved=   9.
 NSaved= 9 IEnMin= 9 EnMin= -495.262571876329     IErMin= 9 ErrMin= 3.49D-06
 ErrMax= 3.49D-06  0.00D+00 EMaxC= 1.00D-01 BMatC= 2.49D-09 BMatP= 2.62D-08
 IDIUse=1 WtCom= 1.00D+00 WtEn= 0.00D+00
[...]
 Largest concise Abelian subgroup C1      NOp   1
                         Standard orientation:                         
 ---------------------------------------------------------------------
 Center     Atomic      Atomic             Coordinates (Angstroms)
 Number     Number       Type             X           Y           Z
 ---------------------------------------------------------------------
      1          6           0       -1.377843    1.857935    0.062782
      2          6           0       -0.696233    0.747988   -0.265387
      3          6           0        0.709580    0.764358   -0.813834
      4          6           0        1.742387    0.027479    0.026051
      5          8           0        2.732666   -0.523479   -0.424634
      6          8           0        1.469793    0.096019    1.356221
      7          6           0       -1.289251   -0.614982   -0.130656
      8          8           0       -0.679281   -1.641069   -0.411922
      9          8           0       -2.566774   -0.622858    0.334660
     10          1           0       -0.925301    2.846153   -0.040261
     11          1           0       -2.399519    1.808801    0.440124
     12          1           0        0.745707    0.313207   -1.815455
     13          1           0        1.060046    1.804204   -0.909464
     14          1           0        2.187026   -0.378076    1.829774
     15          1           0       -2.851026   -1.559862    0.386941
 ---------------------------------------------------------------------
 Rotational constants (GHZ):           2.7391630           1.1678240           0.9909817
 Standard basis: TZVP (5D, 7F)
 There are   216 symmetry adapted cartesian basis functions of A   symmetry.
 There are   207 symmetry adapted basis functions of A   symmetry.
   207 basis functions,   363 primitive gaussians,   216 cartesian basis functions
    34 alpha electrons       34 beta electrons
       nuclear repulsion energy       445.3610432264 Hartrees.
 NAtoms=   15 NActive=   15 NUniq=   15 SFac= 1.00D+00 NAtFMM=   60 NAOKFM=F Big=F
 Integral buffers will be    131072 words long.
 Raffenetti 2 integral format.
 Two-electron integral symmetry is turned on.
 Warning! Using old PCM defaults because the COSMOthermo output has been requested.
 These settings can be overridden by following keywords.
 ------------------------------------------------------------------------------
 Polarizable Continuum Model (PCM)
 =================================
 Model                : C-PCM.
 Atomic radii         : Klamt.
 XCosmo               : -1.000 (infinite dielectric limit)
 Polarization charges : Electronic and nuclear charges.
 Charge compensation  : Type 3 (Electronic density weighted correction).
 Solution method      : On-the-fly selection.
 Cavity type          : VdW (van der Waals Surface) (Alpha=1.000).
 Cavity algorithm     : GePol (No added spheres)
                        Default sphere list used, NSphG=   15.
                        Tesserae with average area of 0.200 Ang**2.
                        Smoothing algorithm: None.
                        Polarization charges: point-like.
                        Self-potential: constant (ISelfS= 1).
                        Self-field    : global E.n sum rule (ISelfD= 3).
 Solvent              : Water, Eps=  78.355300 Eps(inf)=   1.777849
 ------------------------------------------------------------------------------
 Spheres list:
 ISph  on   Nord     Re0    Alpha      Xe            Ye            Ze
    1   C      1    2.0000  1.000     -1.377843      1.857935      0.062782
    2   C      2    2.0000  1.000     -0.696233      0.747988     -0.265387
    3   C      3    2.0000  1.000      0.709580      0.764358     -0.813834
    4   C      4    2.0000  1.000      1.742387      0.027479      0.026051
    5   O      5    1.7200  1.000      2.732666     -0.523479     -0.424634
    6   O      6    1.7200  1.000      1.469793      0.096019      1.356221
    7   C      7    2.0000  1.000     -1.289251     -0.614982     -0.130656
    8   O      8    1.7200  1.000     -0.679281     -1.641069     -0.411922
    9   O      9    1.7200  1.000     -2.566774     -0.622858      0.334660
   10   H     10    1.3000  1.000     -0.925301      2.846153     -0.040261
   11   H     11    1.3000  1.000     -2.399519      1.808801      0.440124
   12   H     12    1.3000  1.000      0.745707      0.313207     -1.815455
   13   H     13    1.3000  1.000      1.060046      1.804204     -0.909464
   14   H     14    1.3000  1.000      2.187026     -0.378076      1.829774
   15   H     15    1.3000  1.000     -2.851026     -1.559862      0.386941
 ------------------------------------------------------------------------------
 One-electron integrals computed using PRISM.
 PrsmSu:  requested number of processors reduced to:  29 ShMem   1 Linda.
 NBasis=   207 RedAO= T EigKep=  1.68D-04  NBF=   207
 NBsUse=   207 1.00D-06 EigRej= -1.00D+00 NBFU=   207
 Initial guess from the checkpoint file:  "LVHBHZANLOWSRM-UHFFFAOYSA-N.chk"
 B after Tr=     0.000000    0.000000   -0.000000
         Rot=    1.000000    0.000000    0.000000    0.000000 Ang=   0.00 deg.
 Requested convergence on RMS density matrix=1.00D-08 within 128 cycles.
 Requested convergence on MAX density matrix=1.00D-06.
 Requested convergence on             energy=1.00D-06.
 No special actions if energy rises.
 Inv3:  Mode=1 IEnd=     3643212.
 Iteration    1 A*A^-1 deviation from unit magnitude is 7.99D-15 for    593.
 Iteration    1 A*A^-1 deviation from orthogonality  is 7.88D-15 for    894    593.
 Iteration    1 A^-1*A deviation from unit magnitude is 1.20D-14 for    593.
 Iteration    1 A^-1*A deviation from orthogonality  is 9.77D-15 for    894    593.
 Error on nuclear    polarization charges =  0.01670
 Error on electronic polarization charges = -0.04022
 SCF Done:  E(RB-P86) =  -495.268684987     A.U. after   12 cycles
            NFock= 12  Conv=0.19D-08     -V/T= 2.0042
 --------------------------------------------------------------------
 Variational C-PCM results
 =========================
 <psi(f)|   H    |psi(f)>                     (a.u.) =    -495.240994
 <psi(f)|H+V(f)/2|psi(f)>                     (a.u.) =    -495.268685
 Total free energy in solution:
 - with all non electrostatic terms           (a.u.) =    -495.257050
 --------------------------------------------------------------------
 (Polarized solute)-Solvent               (kcal/mol) =     -17.38
 --------------------------------------------------------------------
 Cavitation energy                        (kcal/mol) =      20.50
 Dispersion energy                        (kcal/mol) =     -14.42
 Repulsion energy                         (kcal/mol) =       1.22
 Total non electrostatic                  (kcal/mol) =       7.30
 --------------------------------------------------------------------
 Partition over spheres:
 Sphere  on Atom  Surface  Charge   GEl     GCav    GDR
    1      C1      21.36  -0.004   -0.27    2.51   -1.61
    2      C2       4.29   0.005   -0.04    0.50   -0.16
    3      C3       8.76  -0.034   -0.23    1.03   -0.47
    4      C4       8.75  -0.024   -0.12    1.03   -0.38
    5      O5      20.44   0.242   -4.42    2.54   -1.78
    6      O6      14.25   0.073   -0.75    1.77   -1.11
    7      C7       9.83  -0.032   -0.12    1.15   -0.58
    8      O8      17.87   0.210   -3.36    2.22   -1.43
    9      O9      14.56   0.073   -0.46    1.81   -1.26
   10      H10      6.44  -0.051   -0.77    0.91   -0.65
   11      H11      5.79  -0.045   -0.40    0.82   -0.53
   12      H12      6.52  -0.048   -0.15    0.92   -0.70
   13      H13      6.43  -0.056   -0.79    0.91   -0.69
   14      H14      8.47  -0.155   -2.56    1.20   -0.93
   15      H15      8.43  -0.154   -2.93    1.19   -0.91
 --------------------------------------------------------------------
 - cavitation energy not included in the total energy.
 - dispersion energy not included in the total energy.
 - repulsion  energy not included in the total energy.
 After PCM corrections, the energy is  -495.268684987     a.u.
 --------------------------------------------------------------------
 Writing COSMO formatted file "LVHBHZANLOWSRM-UHFFFAOYSA-N.cosmo"
 Recomputed dielectric energy= -0.027779 old= -0.027691 diff=-8.83D-05

 **********************************************************************

            Population analysis using the SCF Density.

 **********************************************************************

 Orbital symmetries:
       Occupied  (A) (A) (A) (A) (A) (A) (A) (A) (A) (A) (A) (A)
                 (A) (A) (A) (A) (A) (A) (A) (A) (A) (A) (A) (A)
                 (A) (A) (A) (A) (A) (A) (A) (A) (A) (A)
       Virtual   (A) (A) (A) (A) (A) (A) (A) (A) (A) (A) (A) (A)
                 (A) (A) (A) (A) (A) (A) (A) (A) (A) (A) (A) (A)
                 (A) (A) (A) (A) (A) (A) (A) (A) (A) (A) (A) (A)
                 (A) (A) (A) (A) (A) (A) (A) (A) (A) (A) (A) (A)
                 (A) (A) (A) (A) (A) (A) (A) (A) (A) (A) (A) (A)
                 (A) (A) (A) (A) (A) (A) (A) (A) (A) (A) (A) (A)
                 (A) (A) (A) (A) (A) (A) (A) (A) (A) (A) (A) (A)
                 (A) (A) (A) (A) (A) (A) (A) (A) (A) (A) (A) (A)
                 (A) (A) (A) (A) (A) (A) (A) (A) (A) (A) (A) (A)
                 (A) (A) (A) (A) (A) (A) (A) (A) (A) (A) (A) (A)
                 (A) (A) (A) (A) (A) (A) (A) (A) (A) (A) (A) (A)
                 (A) (A) (A) (A) (A) (A) (A) (A) (A) (A) (A) (A)
                 (A) (A) (A) (A) (A) (A) (A) (A) (A) (A) (A) (A)
                 (A) (A) (A) (A) (A) (A) (A) (A) (A) (A) (A) (A)
                 (A) (A) (A) (A) (A)
 The electronic state is 1-A.
 Alpha  occ. eigenvalues --  -18.82457 -18.82409 -18.77540 -18.77254 -10.03944
 Alpha  occ. eigenvalues --  -10.03908  -9.93795  -9.92503  -9.91911  -1.02840
 Alpha  occ. eigenvalues --   -1.02565  -0.94481  -0.94415  -0.76258  -0.67771
 Alpha  occ. eigenvalues --   -0.60779  -0.57073  -0.52644  -0.47108  -0.44834
 Alpha  occ. eigenvalues --   -0.44514  -0.43143  -0.42438  -0.41091  -0.39365
 Alpha  occ. eigenvalues --   -0.36885  -0.36224  -0.34877  -0.34377  -0.29800
 Alpha  occ. eigenvalues --   -0.29430  -0.27013  -0.25559  -0.24645
 Alpha virt. eigenvalues --   -0.09937  -0.04936   0.01324   0.02112   0.03528
 Alpha virt. eigenvalues --    0.05930   0.07890   0.08910   0.09857   0.12576
 Alpha virt. eigenvalues --    0.13441   0.14547   0.15863   0.16707   0.17634
 Alpha virt. eigenvalues --    0.19290   0.19615   0.21970   0.23070   0.25456
 Alpha virt. eigenvalues --    0.26334   0.26894   0.27870   0.29195   0.30167
 Alpha virt. eigenvalues --    0.31584   0.32247   0.33961   0.34277   0.36312
 Alpha virt. eigenvalues --    0.36922   0.37442   0.39082   0.40738   0.41505
 Alpha virt. eigenvalues --    0.42630   0.44278   0.45383   0.45711   0.46628
 Alpha virt. eigenvalues --    0.48558   0.49379   0.51260   0.52476   0.53833
 Alpha virt. eigenvalues --    0.55380   0.56161   0.58153   0.59608   0.63473
 Alpha virt. eigenvalues --    0.63910   0.65685   0.68630   0.70874   0.71976
 Alpha virt. eigenvalues --    0.76932   0.83591   0.88425   0.93769   1.10198
 Alpha virt. eigenvalues --    1.15277   1.17939   1.20599   1.20708   1.22296
 Alpha virt. eigenvalues --    1.24399   1.25144   1.25855   1.27104   1.30248
 Alpha virt. eigenvalues --    1.30381   1.33728   1.34852   1.35732   1.36886
 Alpha virt. eigenvalues --    1.37807   1.39303   1.41848   1.44121   1.46478
 Alpha virt. eigenvalues --    1.49151   1.50808   1.53394   1.54960   1.55767
 Alpha virt. eigenvalues --    1.55983   1.56624   1.66869   1.67264   1.69917
 Alpha virt. eigenvalues --    1.72066   1.74109   1.79161   1.79360   1.80305
 Alpha virt. eigenvalues --    1.82175   1.89991   1.91856   1.94682   1.99163
 Alpha virt. eigenvalues --    2.02277   2.04242   2.07159   2.07585   2.13935
 Alpha virt. eigenvalues --    2.16818   2.17397   2.20448   2.22872   2.24158
 Alpha virt. eigenvalues --    2.25223   2.31744   2.34078   2.40723   2.41742
 Alpha virt. eigenvalues --    2.44147   2.47291   2.48603   2.49103   2.51120
 Alpha virt. eigenvalues --    2.53051   2.54276   2.54921   2.55588   2.56438
 Alpha virt. eigenvalues --    2.57680   2.59401   2.60170   2.61908   2.62993
 Alpha virt. eigenvalues --    2.65756   2.68913   2.70192   2.71580   2.79395
 Alpha virt. eigenvalues --    2.79782   2.83494   2.84199   2.85541   2.88120
 Alpha virt. eigenvalues --    2.91417   2.97282   2.97755   2.99352   3.03896
 Alpha virt. eigenvalues --    3.05397   3.08387   3.09538   3.10961   3.12828
 Alpha virt. eigenvalues --    3.14684   3.18127   3.19809   3.22461   3.30704
 Alpha virt. eigenvalues --    3.35889   3.41642   3.46664   3.79671   3.83137
 Alpha virt. eigenvalues --    4.09030   4.09663   4.17502   4.19802  21.35393
 Alpha virt. eigenvalues --   21.71295  21.75172  21.81738  21.88223  43.04192
 Alpha virt. eigenvalues --   43.08272  43.14317  43.18865
          Condensed to atoms (all electrons):
               1          2          3          4          5          6
     1  C    5.019171   0.454311  -0.065429   0.000798  -0.000860   0.002597
     2  C    0.454311   5.920115   0.013496   0.024002   0.008324   0.029831
     3  C   -0.065429   0.013496   5.881969   0.085238  -0.120950  -0.170725
     4  C    0.000798   0.024002   0.085238   4.821193   0.607135   0.318318
     5  O   -0.000860   0.008324  -0.120950   0.607135   7.959922  -0.107834
     6  O    0.002597   0.029831  -0.170725   0.318318  -0.107834   7.895233
     7  C   -0.023442   0.096059  -0.170170   0.010480   0.002512   0.010980
     8  O    0.009226  -0.153049   0.003508   0.023648  -0.002512  -0.004532
     9  O    0.016982  -0.187239   0.004801  -0.000623  -0.000010  -0.000082
    10  H    0.394312  -0.027135  -0.016820   0.000333   0.000034   0.000016
    11  H    0.401909  -0.026227   0.010454  -0.000317   0.000009  -0.000226
    12  H   -0.004127  -0.032179   0.429947  -0.058726   0.007628   0.005083
    13  H   -0.008887  -0.044016   0.392575  -0.011605   0.001275   0.003816
    14  H    0.000022  -0.001516   0.017457  -0.016635   0.002299   0.285280
    15  H   -0.001584   0.021387  -0.000757   0.000026   0.000001   0.000006
               7          8          9         10         11         12
     1  C   -0.023442   0.009226   0.016982   0.394312   0.401909  -0.004127
     2  C    0.096059  -0.153049  -0.187239  -0.027135  -0.026227  -0.032179
     3  C   -0.170170   0.003508   0.004801  -0.016820   0.010454   0.429947
     4  C    0.010480   0.023648  -0.000623   0.000333  -0.000317  -0.058726
     5  O    0.002512  -0.002512  -0.000010   0.000034   0.000009   0.007628
     6  O    0.010980  -0.004532  -0.000082   0.000016  -0.000226   0.005083
     7  C    4.892598   0.614647   0.367051   0.012345  -0.025915  -0.003075
     8  O    0.614647   7.957128  -0.098221  -0.000238   0.000262   0.001306
     9  O    0.367051  -0.098221   7.878882   0.000113   0.006894   0.000168
    10  H    0.012345  -0.000238   0.000113   0.496603  -0.028237   0.000183
    11  H   -0.025915   0.000262   0.006894  -0.028237   0.490377  -0.000210
    12  H   -0.003075   0.001306   0.000168   0.000183  -0.000210   0.461827
    13  H    0.014253   0.001209   0.000014   0.000966   0.000093  -0.008309
    14  H   -0.001363  -0.000044  -0.000006  -0.000014   0.000002  -0.000567
    15  H   -0.019771   0.001414   0.289952   0.000026  -0.000161  -0.000000
              13         14         15
     1  C   -0.008887   0.000022  -0.001584
     2  C   -0.044016  -0.001516   0.021387
     3  C    0.392575   0.017457  -0.000757
     4  C   -0.011605  -0.016635   0.000026
     5  O    0.001275   0.002299   0.000001
     6  O    0.003816   0.285280   0.000006
     7  C    0.014253  -0.001363  -0.019771
     8  O    0.001209  -0.000044   0.001414
     9  O    0.000014  -0.000006   0.289952
    10  H    0.000966  -0.000014   0.000026
    11  H    0.000093   0.000002  -0.000161
    12  H   -0.008309  -0.000567  -0.000000
    13  H    0.447725  -0.000536   0.000014
    14  H   -0.000536   0.381911  -0.000001
    15  H    0.000014  -0.000001   0.371057
 Mulliken charges:
               1
     1  C   -0.194999
     2  C   -0.096164
     3  C   -0.294594
     4  C    0.196735
     5  O   -0.356973
     6  O   -0.267762
     7  C    0.222811
     8  O   -0.353753
     9  O   -0.278677
    10  H    0.167514
    11  H    0.171294
    12  H    0.201053
    13  H    0.211411
    14  H    0.333712
    15  H    0.338392
 Sum of Mulliken charges =  -0.00000
 Mulliken charges with hydrogens summed into heavy atoms:
               1
     1  C    0.143809
     2  C   -0.096164
     3  C    0.117870
     4  C    0.196735
     5  O   -0.356973
     6  O    0.065950
     7  C    0.222811
     8  O   -0.353753
     9  O    0.059714
 Electronic spatial extent (au):  <R**2>=           1200.7684
 Charge=             -0.0000 electrons
 Dipole moment (field-independent basis, Debye):
    X=             -3.0852    Y=              3.1598    Z=              1.7718  Tot=              4.7583
 Quadrupole moment (field-independent basis, Debye-Ang):
   XX=            -52.3848   YY=            -48.4256   ZZ=            -49.5220
   XY=              5.8665   XZ=              5.0951   YZ=             -5.3369
 Traceless Quadrupole moment (field-independent basis, Debye-Ang):
   XX=             -2.2740   YY=              1.6852   ZZ=              0.5888
   XY=              5.8665   XZ=              5.0951   YZ=             -5.3369
 Octapole moment (field-independent basis, Debye-Ang**2):
  XXX=            -41.1929  YYY=             10.2161  ZZZ=              9.9024  XYY=            -12.8052
  XXY=             -9.6633  XXZ=             25.6176  XZZ=             10.2500  YZZ=             -7.0625
  YYZ=              6.3345  XYZ=             -4.6847
 Hexadecapole moment (field-independent basis, Debye-Ang**3):
 XXXX=           -951.3007 YYYY=           -355.8822 ZZZZ=           -157.2515 XXXY=             80.6809
 XXXZ=             48.3180 YYYX=             18.7454 YYYZ=            -11.4220 ZZZX=             25.1472
 ZZZY=             -7.3971 XXYY=           -174.5545 XXZZ=           -161.9394 YYZZ=            -96.3916
 XXYZ=            -17.5447 YYXZ=             -8.5829 ZZXY=             -0.0127
 N-N= 4.453610432264D+02 E-N=-2.053083200848D+03  KE= 4.932168525476D+02
 Unable to Open any file for archive entry.
 1\1\GINC-TCN1789\SP\RBP86\TZVP\C5H6O4\ELENAA\22-Feb-2021\0\\# BP86/TZV
 P SCRF=COSMORS geom=CHECKPOINT guess=CHECKPOINT\\COSMO-file for #LVHBH
 ZANLOWSRM-UHFFFAOYSA-N\\0,1\C,0,-2.0577535801,0.8583052975,0.491590275
 5\C,0,-0.82572468,1.1948061198,0.075487054\C,0,0.4012792294,1.11242028
 19,0.9501557355\C,0,1.4962336898,0.1838649527,0.4462224782\O,0,2.68713
 36736,0.3440494239,0.6546000473\O,0,0.995877943,-0.8881163854,-0.22374
 52069\C,0,-0.5666219318,1.7046160799,-1.303087713\O,0,0.5520232547,2.0
 04377814,-1.7065774231\O,0,-1.6795640506,1.8063175475,-2.0774669295\H,
 0,-2.2263911024,0.484412703,1.5033969564\H,0,-2.9247759608,0.947436046
 6,-0.1633533011\H,0,0.8649752678,2.1016547219,1.0705226677\H,0,0.11986
 88113,0.7575516329,1.9542121693\H,0,1.7551293105,-1.4481225945,-0.4946
 191429\H,0,-1.3943198743,2.1431663583,-2.9530676672\\Version=ES64L-G16
 RevC.01\State=1-A\HF=-495.268685\RMSD=1.909e-09\Dipole=-1.8038615,-0.4
 86137,0.1200202\Quadrupole=-6.5653835,1.7852791,4.7801045,-3.7820976,-
 1.5701779,-0.2940001\PG=C01 [X(C5H6O4)]\\@
 The archive entry for this job was punched.


 IT IS DOUBTED WHETHER A MAN EVER BRINGS HIS FACULTIES TO BEAR WITH THEIR FULL FORCE
 ON A SUBJECT UNTIL HE WRITES UPON IT.

                          -- CICERO
 Job cpu time:       0 days  0 hours  4 minutes 36.1 seconds.
 Elapsed time:       0 days  0 hours  0 minutes  9.1 seconds.
 File lengths (MBytes):  RWF=     39 Int=      0 D2E=      0 Chk=      7 Scr=      1
 Normal termination of Gaussian 16 at Mon Feb 22 21:14:52 2021.
