 Entering Gaussian System, Link 0=g16
 Input=MGJKQDOBUOMPEZ-UHFFFAOYSA-N.gjf
 Output=MGJKQDOBUOMPEZ-UHFFFAOYSA-N.log
 Initial command:
 /sw/arch/RedHatEnterpriseServer7/EB_production/2019/software/Gaussian/g16.c01/l1.exe "/scratch-local/elenaa.9715236/Gau-368.inp" -scrdir="/scratch-local/elenaa.9715236/"
 Entering Link 1 = /sw/arch/RedHatEnterpriseServer7/EB_production/2019/software/Gaussian/g16.c01/l1.exe PID=       369.
  
 Copyright (c) 1988-2019, Gaussian, Inc.  All Rights Reserved.
  
 This is part of the Gaussian(R) 16 program.  It is based on
 the Gaussian(R) 09 system (copyright 2009, Gaussian, Inc.),
 the Gaussian(R) 03 system (copyright 2003, Gaussian, Inc.),
 the Gaussian(R) 98 system (copyright 1998, Gaussian, Inc.),
 the Gaussian(R) 94 system (copyright 1995, Gaussian, Inc.),
 the Gaussian 92(TM) system (copyright 1992, Gaussian, Inc.),
 the Gaussian 90(TM) system (copyright 1990, Gaussian, Inc.),
 the Gaussian 88(TM) system (copyright 1988, Gaussian, Inc.),
 the Gaussian 86(TM) system (copyright 1986, Carnegie Mellon
 University), and the Gaussian 82(TM) system (copyright 1983,
 Carnegie Mellon University). Gaussian is a federally registered
 trademark of Gaussian, Inc.
  
 This software contains proprietary and confidential information,
 including trade secrets, belonging to Gaussian, Inc.
  
 This software is provided under written license and may be
 used, copied, transmitted, or stored only in accord with that
 written license.
  
 The following legend is applicable only to US Government
 contracts under FAR:
  
                    RESTRICTED RIGHTS LEGEND
  
 Use, reproduction and disclosure by the US Government is
 subject to restrictions as set forth in subparagraphs (a)
 and (c) of the Commercial Computer Software - Restricted
 Rights clause in FAR 52.227-19.
  
 Gaussian, Inc.
 340 Quinnipiac St., Bldg. 40, Wallingford CT 06492
  
  
 ---------------------------------------------------------------
 Warning -- This program may not be used in any manner that
 competes with the business of Gaussian, Inc. or will provide
 assistance to any competitor of Gaussian, Inc.  The licensee
 of this program is prohibited from giving any competitor of
 Gaussian, Inc. access to this program.  By using this program,
 the user acknowledges that Gaussian, Inc. is engaged in the
 business of creating and licensing software in the field of
 computational chemistry and represents and warrants to the
 licensee that it is not a competitor of Gaussian, Inc. and that
 it will not use this program in any manner prohibited above.
 ---------------------------------------------------------------
  

 Cite this work as:
 Gaussian 16, Revision C.01,
 M. J. Frisch, G. W. Trucks, H. B. Schlegel, G. E. Scuseria, 
 M. A. Robb, J. R. Cheeseman, G. Scalmani, V. Barone, 
 G. A. Petersson, H. Nakatsuji, X. Li, M. Caricato, A. V. Marenich, 
 J. Bloino, B. G. Janesko, R. Gomperts, B. Mennucci, H. P. Hratchian, 
 J. V. Ortiz, A. F. Izmaylov, J. L. Sonnenberg, D. Williams-Young, 
 F. Ding, F. Lipparini, F. Egidi, J. Goings, B. Peng, A. Petrone, 
 T. Henderson, D. Ranasinghe, V. G. Zakrzewski, J. Gao, N. Rega, 
 G. Zheng, W. Liang, M. Hada, M. Ehara, K. Toyota, R. Fukuda, 
 J. Hasegawa, M. Ishida, T. Nakajima, Y. Honda, O. Kitao, H. Nakai, 
 T. Vreven, K. Throssell, J. A. Montgomery, Jr., J. E. Peralta, 
 F. Ogliaro, M. J. Bearpark, J. J. Heyd, E. N. Brothers, K. N. Kudin, 
 V. N. Staroverov, T. A. Keith, R. Kobayashi, J. Normand, 
 K. Raghavachari, A. P. Rendell, J. C. Burant, S. S. Iyengar, 
 J. Tomasi, M. Cossi, J. M. Millam, M. Klene, C. Adamo, R. Cammi, 
 J. W. Ochterski, R. L. Martin, K. Morokuma, O. Farkas, 
 J. B. Foresman, and D. J. Fox, Gaussian, Inc., Wallingford CT, 2019.
 
 ******************************************
 Gaussian 16:  ES64L-G16RevC.01  3-Jul-2019
                22-Feb-2021 
 ******************************************
 %chk=MGJKQDOBUOMPEZ-UHFFFAOYSA-N.chk
 %NProcShared=32
 Will use up to   32 processors via shared memory.
 -------------------------------------------------------------
 #P BP86/TZVP EmpiricalDispersion=GD3 SCRF=(Solvent=Water) Opt
 -------------------------------------------------------------
 1/18=20,19=15,26=3,38=1/1,3;
 2/9=110,12=2,17=6,18=5,40=1/2;
 3/5=19,7=101,11=2,25=1,30=1,70=2201,71=1,72=1,74=404,124=31/1,2,3;
 4//1;
 5/5=2,38=5,53=1/2;
 6/7=2,8=2,9=2,10=2,28=1/1;
 7//1,2,3,16;
 1/18=20,19=15,26=3/3(2);
 2/9=110/2;
 99//99;
 2/9=110/2;
 3/5=19,7=101,11=2,25=1,30=1,70=2205,71=1,72=1,74=404,124=31/1,2,3;
 4/5=5,16=3,69=1/1;
 5/5=2,38=5,53=1/2;
 7//1,2,3,16;
 1/18=20,19=15,26=3/3(-5);
 2/9=110/2;
 6/7=2,8=2,9=2,10=2,19=2,28=1/1;
 99/9=1/99;
 Leave Link    1 at Mon Feb 22 21:12:48 2021, MaxMem=           0 cpu:               1.6 elap:               0.1
 (Enter /sw/arch/RedHatEnterpriseServer7/EB_production/2019/software/Gaussian/g16.c01/l101.exe)
 -------------------------------------
 Particle #MGJKQDOBUOMPEZ-UHFFFAOYSA-N
 -------------------------------------
 Symbolic Z-matrix:
 Charge =  0 Multiplicity = 1
 C                     0.60723  -2.87113  -1.56631 
 N                     0.67364  -1.65455  -0.82983 
 C                    -0.39514  -1.04094  -0.26133 
 O                    -1.55064  -1.5213   -0.35169 
 N                    -0.16163   0.11556   0.40999 
 C                    -1.16272   0.8962    1.05285 
 H                    -0.07492  -2.76729  -2.41163 
 H                     1.59974  -3.11409  -1.94333 
 H                     0.26542  -3.68286  -0.92419 
 H                     1.54381  -1.23512  -0.72564 
 H                     0.75327   0.43765   0.44773 
 H                    -1.89258   1.24985   0.32302 
 H                    -0.69268   1.7609    1.52127 
 H                    -1.67106   0.31237   1.82234 
 
 ITRead=  0  0  0  0  0  0  0  0  0  0  0  0  0  0
 MicOpt= -1 -1 -1 -1 -1 -1 -1 -1 -1 -1 -1 -1 -1 -1
 NAtoms=     14 NQM=       14 NQMF=       0 NMMI=      0 NMMIF=      0
                NMic=       0 NMicF=      0.
                    Isotopes and Nuclear Properties:
 (Nuclear quadrupole moments (NQMom) in fm**2, nuclear magnetic moments (NMagM)
  in nuclear magnetons)

  Atom         1           2           3           4           5           6           7           8           9          10
 IAtWgt=          12          14          12          16          14          12           1           1           1           1
 AtmWgt=  12.0000000  14.0030740  12.0000000  15.9949146  14.0030740  12.0000000   1.0078250   1.0078250   1.0078250   1.0078250
 NucSpn=           0           2           0           0           2           0           1           1           1           1
 AtZEff=  -0.0000000  -0.0000000  -0.0000000  -0.0000000  -0.0000000  -0.0000000  -0.0000000  -0.0000000  -0.0000000  -0.0000000
 NQMom=    0.0000000   2.0440000   0.0000000   0.0000000   2.0440000   0.0000000   0.0000000   0.0000000   0.0000000   0.0000000
 NMagM=    0.0000000   0.4037610   0.0000000   0.0000000   0.4037610   0.0000000   2.7928460   2.7928460   2.7928460   2.7928460
 AtZNuc=   6.0000000   7.0000000   6.0000000   8.0000000   7.0000000   6.0000000   1.0000000   1.0000000   1.0000000   1.0000000

  Atom        11          12          13          14
 IAtWgt=           1           1           1           1
 AtmWgt=   1.0078250   1.0078250   1.0078250   1.0078250
 NucSpn=           1           1           1           1
 AtZEff=  -0.0000000  -0.0000000  -0.0000000  -0.0000000
 NQMom=    0.0000000   0.0000000   0.0000000   0.0000000
 NMagM=    2.7928460   2.7928460   2.7928460   2.7928460
 AtZNuc=   1.0000000   1.0000000   1.0000000   1.0000000
 Leave Link  101 at Mon Feb 22 21:12:49 2021, MaxMem=   104857600 cpu:               3.0 elap:               0.1
 (Enter /sw/arch/RedHatEnterpriseServer7/EB_production/2019/software/Gaussian/g16.c01/l103.exe)

 GradGradGradGradGradGradGradGradGradGradGradGradGradGradGradGradGradGrad
 Berny optimization.
 Initialization pass.
                           ----------------------------
                           !    Initial Parameters    !
                           ! (Angstroms and Degrees)  !
 --------------------------                            --------------------------
 ! Name  Definition              Value          Derivative Info.                !
 --------------------------------------------------------------------------------
 ! R1    R(1,2)                  1.4237         estimate D2E/DX2                !
 ! R2    R(1,7)                  1.0912         estimate D2E/DX2                !
 ! R3    R(1,8)                  1.0892         estimate D2E/DX2                !
 ! R4    R(1,9)                  1.09           estimate D2E/DX2                !
 ! R5    R(2,3)                  1.3572         estimate D2E/DX2                !
 ! R6    R(2,10)                 0.9716         estimate D2E/DX2                !
 ! R7    R(3,4)                  1.2546         estimate D2E/DX2                !
 ! R8    R(3,5)                  1.3575         estimate D2E/DX2                !
 ! R9    R(5,6)                  1.423          estimate D2E/DX2                !
 ! R10   R(5,11)                 0.9707         estimate D2E/DX2                !
 ! R11   R(6,12)                 1.0911         estimate D2E/DX2                !
 ! R12   R(6,13)                 1.09           estimate D2E/DX2                !
 ! R13   R(6,14)                 1.0915         estimate D2E/DX2                !
 ! A1    A(2,1,7)              110.4011         estimate D2E/DX2                !
 ! A2    A(2,1,8)              109.098          estimate D2E/DX2                !
 ! A3    A(2,1,9)              110.2588         estimate D2E/DX2                !
 ! A4    A(7,1,8)              108.8289         estimate D2E/DX2                !
 ! A5    A(7,1,9)              109.3418         estimate D2E/DX2                !
 ! A6    A(8,1,9)              108.8788         estimate D2E/DX2                !
 ! A7    A(1,2,3)              124.4924         estimate D2E/DX2                !
 ! A8    A(1,2,10)             117.7847         estimate D2E/DX2                !
 ! A9    A(3,2,10)             117.7228         estimate D2E/DX2                !
 ! A10   A(2,3,4)              121.4664         estimate D2E/DX2                !
 ! A11   A(2,3,5)              117.1854         estimate D2E/DX2                !
 ! A12   A(4,3,5)              121.3482         estimate D2E/DX2                !
 ! A13   A(3,5,6)              124.7353         estimate D2E/DX2                !
 ! A14   A(3,5,11)             117.6496         estimate D2E/DX2                !
 ! A15   A(6,5,11)             117.6129         estimate D2E/DX2                !
 ! A16   A(5,6,12)             110.2573         estimate D2E/DX2                !
 ! A17   A(5,6,13)             109.0248         estimate D2E/DX2                !
 ! A18   A(5,6,14)             110.6526         estimate D2E/DX2                !
 ! A19   A(12,6,13)            108.5904         estimate D2E/DX2                !
 ! A20   A(12,6,14)            109.4756         estimate D2E/DX2                !
 ! A21   A(13,6,14)            108.7963         estimate D2E/DX2                !
 ! D1    D(7,1,2,3)             58.0992         estimate D2E/DX2                !
 ! D2    D(7,1,2,10)          -121.9982         estimate D2E/DX2                !
 ! D3    D(8,1,2,3)            177.6484         estimate D2E/DX2                !
 ! D4    D(8,1,2,10)            -2.449          estimate D2E/DX2                !
 ! D5    D(9,1,2,3)            -62.8275         estimate D2E/DX2                !
 ! D6    D(9,1,2,10)           117.075          estimate D2E/DX2                !
 ! D7    D(1,2,3,4)             -0.0645         estimate D2E/DX2                !
 ! D8    D(1,2,3,5)            179.9334         estimate D2E/DX2                !
 ! D9    D(10,2,3,4)          -179.9671         estimate D2E/DX2                !
 ! D10   D(10,2,3,5)             0.0308         estimate D2E/DX2                !
 ! D11   D(2,3,5,6)            179.3175         estimate D2E/DX2                !
 ! D12   D(2,3,5,11)            -0.1158         estimate D2E/DX2                !
 ! D13   D(4,3,5,6)             -0.6846         estimate D2E/DX2                !
 ! D14   D(4,3,5,11)           179.8822         estimate D2E/DX2                !
 ! D15   D(3,5,6,12)           -61.5727         estimate D2E/DX2                !
 ! D16   D(3,5,6,13)           179.3026         estimate D2E/DX2                !
 ! D17   D(3,5,6,14)            59.6859         estimate D2E/DX2                !
 ! D18   D(11,5,6,12)          117.8607         estimate D2E/DX2                !
 ! D19   D(11,5,6,13)           -1.264          estimate D2E/DX2                !
 ! D20   D(11,5,6,14)         -120.8807         estimate D2E/DX2                !
 --------------------------------------------------------------------------------
 Trust Radius=3.00D-01 FncErr=1.00D-07 GrdErr=1.00D-06 EigMax=2.50D+02 EigMin=1.00D-04
 Number of steps in this run=     64 maximum allowed number of steps=    100.
 GradGradGradGradGradGradGradGradGradGradGradGradGradGradGradGradGradGrad

 Leave Link  103 at Mon Feb 22 21:12:49 2021, MaxMem=   104857600 cpu:               0.3 elap:               0.0
 (Enter /sw/arch/RedHatEnterpriseServer7/EB_production/2019/software/Gaussian/g16.c01/l202.exe)
                          Input orientation:                          
 ---------------------------------------------------------------------
 Center     Atomic      Atomic             Coordinates (Angstroms)
 Number     Number       Type             X           Y           Z
 ---------------------------------------------------------------------
      1          6           0        0.607230   -2.871130   -1.566310
      2          7           0        0.673640   -1.654550   -0.829830
      3          6           0       -0.395140   -1.040940   -0.261330
      4          8           0       -1.550640   -1.521300   -0.351690
      5          7           0       -0.161630    0.115560    0.409990
      6          6           0       -1.162720    0.896200    1.052850
      7          1           0       -0.074920   -2.767290   -2.411630
      8          1           0        1.599740   -3.114090   -1.943330
      9          1           0        0.265420   -3.682860   -0.924190
     10          1           0        1.543810   -1.235120   -0.725640
     11          1           0        0.753270    0.437650    0.447730
     12          1           0       -1.892580    1.249850    0.323020
     13          1           0       -0.692680    1.760900    1.521270
     14          1           0       -1.671060    0.312370    1.822340
 ---------------------------------------------------------------------
                    Distance matrix (angstroms):
                    1          2          3          4          5
     1  C    0.000000
     2  N    1.423685   0.000000
     3  C    2.461161   1.357203   0.000000
     4  O    2.820239   2.278990   1.254628   0.000000
     5  N    3.662953   2.316920   1.357457   2.277897   0.000000
     6  C    4.917875   3.663745   2.463485   2.822680   1.422972
     7  H    1.091182   2.073794   2.776079   2.823755   4.034834
     8  H    1.089151   2.056162   3.332660   3.872363   4.367056
     9  H    1.089981   2.071132   2.802760   2.880655   4.048506
    10  H    2.064083   0.971583   2.003202   3.130073   2.454082
    11  H    3.876301   2.452713   2.001959   3.128028   0.970674
    12  H    5.176977   4.043524   2.798484   2.872530   2.071320
    13  H    5.716522   4.365753   3.334142   3.875166   2.055262
    14  H    5.177666   4.049740   2.793045   2.846621   2.076498
                    6          7          8          9         10
     6  C    0.000000
     7  H    5.158206   0.000000
     8  H    5.717579   1.773150   0.000000
     9  H    5.188069   1.779488   1.772725   0.000000
    10  H    3.876965   2.794708   2.239738   2.768598   0.000000
    11  H    2.060936   4.374183   4.364463   4.370213   2.190870
    12  H    1.091062   5.188411   6.031303   5.526674   4.368471
    13  H    1.089982   6.029414   6.405011   6.044233   4.361952
    14  H    1.091504   5.473433   6.051366   5.220656   4.384326
                   11         12         13         14
    11  H    0.000000
    12  H    2.770513   0.000000
    13  H    2.234782   1.771083   0.000000
    14  H    2.789735   1.782106   1.773728   0.000000
 Stoichiometry    C3H8N2O
 Framework group  C1[X(C3H8N2O)]
 Deg. of freedom    36
 Full point group                 C1      NOp   1
 Largest Abelian subgroup         C1      NOp   1
 Largest concise Abelian subgroup C1      NOp   1
                         Standard orientation:                         
 ---------------------------------------------------------------------
 Center     Atomic      Atomic             Coordinates (Angstroms)
 Number     Number       Type             X           Y           Z
 ---------------------------------------------------------------------
      1          6           0        2.458667   -0.031534    0.002739
      2          7           0        1.158366   -0.611269    0.000477
      3          6           0        0.000892    0.097423   -0.002634
      4          8           0        0.001145    1.352051   -0.002551
      5          7           0       -1.158544   -0.608542   -0.005886
      6          6           0       -2.459208   -0.031470    0.004528
      7          1           0        2.584138    0.617761    0.870696
      8          1           0        3.202791   -0.825603    0.047271
      9          1           0        2.615170    0.547839   -0.907146
     10          1           0        1.094736   -1.580766   -0.000253
     11          1           0       -1.096119   -1.577206   -0.007544
     12          1           0       -2.603769    0.557855    0.911289
     13          1           0       -3.201930   -0.829026   -0.013644
     14          1           0       -2.605043    0.604904   -0.870195
 ---------------------------------------------------------------------
 Rotational constants (GHZ):           9.9683917           2.1389093           1.8011749
 Leave Link  202 at Mon Feb 22 21:12:49 2021, MaxMem=   104857600 cpu:               0.3 elap:               0.0
 (Enter /sw/arch/RedHatEnterpriseServer7/EB_production/2019/software/Gaussian/g16.c01/l301.exe)
 Standard basis: TZVP (5D, 7F)
 Ernie: Thresh=  0.10000D-02 Tol=  0.10000D-05 Strict=F.
 There are   168 symmetry adapted cartesian basis functions of A   symmetry.
 There are   162 symmetry adapted basis functions of A   symmetry.
   162 basis functions,   274 primitive gaussians,   168 cartesian basis functions
    24 alpha electrons       24 beta electrons
       nuclear repulsion energy       248.6906319721 Hartrees.
 IExCor=  404 DFT=T Ex=B Corr=P86 ExCW=0 ScaHFX=  0.000000
 ScaDFX=  1.000000  1.000000  1.000000  1.000000 ScalE2=  1.000000  1.000000
 IRadAn=      5 IRanWt=     -1 IRanGd=            0 ICorTp=0 IEmpDi=131
 NAtoms=   14 NActive=   14 NUniq=   14 SFac= 1.00D+00 NAtFMM=   60 NAOKFM=F Big=F
 Integral buffers will be    131072 words long.
 Raffenetti 2 integral format.
 Two-electron integral symmetry is turned on.
 R6Disp:  Grimme-D3 Dispersion energy=       -0.0085528786 Hartrees.
 Nuclear repulsion after empirical dispersion term =      248.6820790934 Hartrees.
 ------------------------------------------------------------------------------
 Polarizable Continuum Model (PCM)
 =================================
 Model                : PCM.
 Atomic radii         : UFF (Universal Force Field).
 Polarization charges : Total charges.
 Charge compensation  : None.
 Solution method      : On-the-fly selection.
 Cavity type          : Scaled VdW (van der Waals Surface) (Alpha=1.100).
 Cavity algorithm     : GePol (No added spheres)
                        Default sphere list used, NSphG=   14.
                        Lebedev-Laikov grids with approx.  5.0 points / Ang**2.
                        Smoothing algorithm: York/Karplus (Gamma=1.0000).
                        Polarization charges: spherical gaussians, with
                                              point-specific exponents (IZeta= 3).
                        Self-potential: point-specific (ISelfS= 7).
                        Self-field    : sphere-specific E.n sum rule (ISelfD= 2).
 1st derivatives      : Analytical E(r).r(x)/FMM algorithm (CHGder, D1EAlg=3).
                        Cavity 1st derivative terms included.
 Solvent              : Water, Eps=  78.355300 Eps(inf)=   1.777849
 ------------------------------------------------------------------------------
 Spheres list:
 ISph  on   Nord     Re0    Alpha      Xe            Ye            Ze
    1   C      1    1.9255  1.100      2.458667     -0.031534      0.002739
    2   N      2    1.8300  1.100      1.158366     -0.611269      0.000477
    3   C      3    1.9255  1.100      0.000892      0.097423     -0.002634
    4   O      4    1.7500  1.100      0.001145      1.352051     -0.002551
    5   N      5    1.8300  1.100     -1.158544     -0.608542     -0.005886
    6   C      6    1.9255  1.100     -2.459208     -0.031470      0.004528
    7   H      7    1.4430  1.100      2.584138      0.617761      0.870696
    8   H      8    1.4430  1.100      3.202791     -0.825603      0.047271
    9   H      9    1.4430  1.100      2.615170      0.547839     -0.907146
   10   H     10    1.4430  1.100      1.094736     -1.580766     -0.000253
   11   H     11    1.4430  1.100     -1.096119     -1.577206     -0.007544
   12   H     12    1.4430  1.100     -2.603769      0.557855      0.911289
   13   H     13    1.4430  1.100     -3.201930     -0.829026     -0.013644
   14   H     14    1.4430  1.100     -2.605043      0.604904     -0.870195
 ------------------------------------------------------------------------------
 GePol: Number of generator spheres                  =      14
 GePol: Total number of spheres                      =      14
 GePol: Number of exposed spheres                    =      14 (100.00%)
 GePol: Number of points                             =    1187
 GePol: Average weight of points                     =       0.13
 GePol: Minimum weight of points                     =   0.28D-09
 GePol: Maximum weight of points                     =    0.20577
 GePol: Number of points with low weight             =      53
 GePol: Fraction of low-weight points (<1% of avg)   =       4.47%
 GePol: Cavity surface area                          =    158.749 Ang**2
 GePol: Cavity volume                                =    143.902 Ang**3
 Leave Link  301 at Mon Feb 22 21:12:49 2021, MaxMem=   104857600 cpu:               1.7 elap:               0.1
 (Enter /sw/arch/RedHatEnterpriseServer7/EB_production/2019/software/Gaussian/g16.c01/l302.exe)
 NPDir=0 NMtPBC=     1 NCelOv=     1 NCel=       1 NClECP=     1 NCelD=      1
         NCelK=      1 NCelE2=     1 NClLst=     1 CellRange=     0.0.
 One-electron integrals computed using PRISM.
 One-electron integral symmetry used in STVInt
 PrsmSu:  requested number of processors reduced to:  29 ShMem   1 Linda.
 NBasis=   162 RedAO= T EigKep=  8.83D-04  NBF=   162
 NBsUse=   162 1.00D-06 EigRej= -1.00D+00 NBFU=   162
 Precomputing XC quadrature grid using
 IXCGrd= 4 IRadAn=           5 IRanWt=          -1 IRanGd=           0 AccXCQ= 0.00D+00.
 Generated NRdTot=       0 NPtTot=           0 NUsed=           0 NTot=          32
 NSgBfM=   167   167   167   167   167 MxSgAt=    14 MxSgA2=    14.
 Leave Link  302 at Mon Feb 22 21:12:49 2021, MaxMem=   104857600 cpu:               8.3 elap:               0.3
 (Enter /sw/arch/RedHatEnterpriseServer7/EB_production/2019/software/Gaussian/g16.c01/l303.exe)
 DipDrv:  MaxL=1.
 Leave Link  303 at Mon Feb 22 21:12:50 2021, MaxMem=   104857600 cpu:               2.2 elap:               0.1
 (Enter /sw/arch/RedHatEnterpriseServer7/EB_production/2019/software/Gaussian/g16.c01/l401.exe)
 ExpMin= 9.52D-02 ExpMax= 2.70D+04 ExpMxC= 9.22D+02 IAcc=3 IRadAn=         5 AccDes= 0.00D+00
 Harris functional with IExCor=  404 and IRadAn=       5 diagonalized for initial guess.
 HarFok:  IExCor=  404 AccDes= 0.00D+00 IRadAn=         5 IDoV= 1 UseB2=F ITyADJ=14
 ICtDFT=  3500011 ScaDFX=  1.000000  1.000000  1.000000  1.000000
 FoFCou: FMM=F IPFlag=           0 FMFlag=      100000 FMFlg1=           0
         NFxFlg=           0 DoJE=T BraDBF=F KetDBF=T FulRan=T
         wScrn=  0.000000 ICntrl=       500 IOpCl=  0 I1Cent=   200000004 NGrid=           0
         NMat0=    1 NMatS0=      1 NMatT0=    0 NMatD0=    1 NMtDS0=    0 NMtDT0=    0
 Petite list used in FoFCou.
 Harris En= -304.121331949851    
 JPrj=0 DoOrth=F DoCkMO=F.
 Leave Link  401 at Mon Feb 22 21:12:50 2021, MaxMem=   104857600 cpu:              11.4 elap:               0.4
 (Enter /sw/arch/RedHatEnterpriseServer7/EB_production/2019/software/Gaussian/g16.c01/l502.exe)
 Integral symmetry usage will be decided dynamically.
 Closed shell SCF:
 Using DIIS extrapolation, IDIIS=  1040.
 NGot=   104857600 LenX=   104793598 LenY=   104764933
 Requested convergence on RMS density matrix=1.00D-08 within 128 cycles.
 Requested convergence on MAX density matrix=1.00D-06.
 Requested convergence on             energy=1.00D-06.
 No special actions if energy rises.
 Fock matrices will be formed incrementally for  20 cycles.

 Cycle   1  Pass 1  IDiag  1:
 FoFJK:  IHMeth= 1 ICntrl=     500 DoSepK=F KAlg= 0 I1Cent=           0 FoldK=F
 IRaf= 950000000 NMat=       1 IRICut=       1 DoRegI=T DoRafI=F ISym2E= 0 IDoP0=0 IntGTp=1.
 FoFCou: FMM=F IPFlag=           0 FMFlag=      100000 FMFlg1=           0
         NFxFlg=           0 DoJE=T BraDBF=F KetDBF=F FulRan=T
         wScrn=  0.000000 ICntrl=       500 IOpCl=  0 I1Cent=           0 NGrid=           0
         NMat0=    1 NMatS0=      1 NMatT0=    0 NMatD0=    1 NMtDS0=    0 NMtDT0=    0
 Symmetry not used in FoFCou.
 Inv3:  Mode=1 IEnd=     4226907.
 Iteration    1 A*A^-1 deviation from unit magnitude is 2.89D-15 for    218.
 Iteration    1 A*A^-1 deviation from orthogonality  is 1.78D-15 for   1012    863.
 Iteration    1 A^-1*A deviation from unit magnitude is 2.44D-15 for    277.
 Iteration    1 A^-1*A deviation from orthogonality  is 2.34D-15 for    804    185.
 E= -303.810341283127    
 DIIS: error= 4.50D-02 at cycle   1 NSaved=   1.
 NSaved= 1 IEnMin= 1 EnMin= -303.810341283127     IErMin= 1 ErrMin= 4.50D-02
 ErrMax= 4.50D-02  0.00D+00 EMaxC= 1.00D-01 BMatC= 2.40D-01 BMatP= 2.40D-01
 IDIUse=3 WtCom= 5.50D-01 WtEn= 4.50D-01
 Coeff-Com:  0.100D+01
 Coeff-En:   0.100D+01
 Coeff:      0.100D+01
 Gap=     0.196 Goal=   None    Shift=    0.000
 GapD=    0.196 DampG=1.000 DampE=0.500 DampFc=0.5000 IDamp=-1.
 Damping current iteration by 5.00D-01
 RMSDP=9.50D-03 MaxDP=2.11D-01              OVMax= 3.48D-01

 Cycle   2  Pass 1  IDiag  1:
 RMSU=  4.74D-03    CP:  9.84D-01
 E= -303.811365112482     Delta-E=       -0.001023829355 Rises=F Damp=T
 DIIS: error= 3.33D-02 at cycle   2 NSaved=   2.
 NSaved= 2 IEnMin= 2 EnMin= -303.811365112482     IErMin= 2 ErrMin= 3.33D-02
 ErrMax= 3.33D-02  0.00D+00 EMaxC= 1.00D-01 BMatC= 7.57D-02 BMatP= 2.40D-01
 IDIUse=3 WtCom= 6.67D-01 WtEn= 3.33D-01
 Coeff-Com:  0.334D+00 0.666D+00
 Coeff-En:   0.498D+00 0.502D+00
 Coeff:      0.389D+00 0.611D+00
 Gap=     0.243 Goal=   None    Shift=    0.000
 RMSDP=3.47D-03 MaxDP=7.95D-02 DE=-1.02D-03 OVMax= 2.64D-01

 Cycle   3  Pass 1  IDiag  1:
 RMSU=  1.79D-03    CP:  9.78D-01  3.72D-01
 E= -303.969395847376     Delta-E=       -0.158030734894 Rises=F Damp=F
 DIIS: error= 1.87D-02 at cycle   3 NSaved=   3.
 NSaved= 3 IEnMin= 3 EnMin= -303.969395847376     IErMin= 3 ErrMin= 1.87D-02
 ErrMax= 1.87D-02  0.00D+00 EMaxC= 1.00D-01 BMatC= 4.42D-02 BMatP= 7.57D-02
 IDIUse=3 WtCom= 8.13D-01 WtEn= 1.87D-01
 Coeff-Com:  0.197D+00 0.413D+00 0.390D+00
 Coeff-En:   0.348D-02 0.000D+00 0.997D+00
 Coeff:      0.161D+00 0.336D+00 0.503D+00
 Gap=     0.238 Goal=   None    Shift=    0.000
 RMSDP=1.41D-03 MaxDP=2.96D-02 DE=-1.58D-01 OVMax= 1.16D-01

 Cycle   4  Pass 1  IDiag  1:
 RMSU=  8.95D-04    CP:  9.90D-01  4.75D-01  4.65D-01
 E= -303.996115422747     Delta-E=       -0.026719575370 Rises=F Damp=F
 DIIS: error= 1.34D-02 at cycle   4 NSaved=   4.
 NSaved= 4 IEnMin= 4 EnMin= -303.996115422747     IErMin= 4 ErrMin= 1.34D-02
 ErrMax= 1.34D-02  0.00D+00 EMaxC= 1.00D-01 BMatC= 1.53D-02 BMatP= 4.42D-02
 IDIUse=3 WtCom= 8.66D-01 WtEn= 1.34D-01
 Coeff-Com:  0.518D-01 0.674D-01 0.356D+00 0.525D+00
 Coeff-En:   0.000D+00 0.000D+00 0.288D+00 0.712D+00
 Coeff:      0.449D-01 0.584D-01 0.347D+00 0.550D+00
 Gap=     0.238 Goal=   None    Shift=    0.000
 RMSDP=5.85D-04 MaxDP=1.36D-02 DE=-2.67D-02 OVMax= 5.05D-02

 Cycle   5  Pass 1  IDiag  1:
 RMSU=  1.55D-04    CP:  9.86D-01  4.13D-01  6.39D-01  5.94D-01
 E= -304.007945533476     Delta-E=       -0.011830110729 Rises=F Damp=F
 DIIS: error= 1.86D-03 at cycle   5 NSaved=   5.
 NSaved= 5 IEnMin= 5 EnMin= -304.007945533476     IErMin= 5 ErrMin= 1.86D-03
 ErrMax= 1.86D-03  0.00D+00 EMaxC= 1.00D-01 BMatC= 4.54D-04 BMatP= 1.53D-02
 IDIUse=3 WtCom= 9.81D-01 WtEn= 1.86D-02
 Coeff-Com:  0.135D-01 0.123D-01 0.162D+00 0.305D+00 0.507D+00
 Coeff-En:   0.000D+00 0.000D+00 0.000D+00 0.000D+00 0.100D+01
 Coeff:      0.133D-01 0.121D-01 0.159D+00 0.300D+00 0.516D+00
 Gap=     0.224 Goal=   None    Shift=    0.000
 RMSDP=1.13D-04 MaxDP=1.92D-03 DE=-1.18D-02 OVMax= 7.98D-03

 Cycle   6  Pass 1  IDiag  1:
 RMSU=  5.19D-05    CP:  9.86D-01  4.27D-01  6.31D-01  6.39D-01  6.27D-01
 E= -304.008299557325     Delta-E=       -0.000354023849 Rises=F Damp=F
 DIIS: error= 4.11D-04 at cycle   6 NSaved=   6.
 NSaved= 6 IEnMin= 6 EnMin= -304.008299557325     IErMin= 6 ErrMin= 4.11D-04
 ErrMax= 4.11D-04  0.00D+00 EMaxC= 1.00D-01 BMatC= 2.71D-05 BMatP= 4.54D-04
 IDIUse=3 WtCom= 9.96D-01 WtEn= 4.11D-03
 Coeff-Com:  0.244D-02-0.700D-03 0.444D-01 0.892D-01 0.259D+00 0.606D+00
 Coeff-En:   0.000D+00 0.000D+00 0.000D+00 0.000D+00 0.000D+00 0.100D+01
 Coeff:      0.243D-02-0.697D-03 0.442D-01 0.888D-01 0.258D+00 0.607D+00
 Gap=     0.223 Goal=   None    Shift=    0.000
 RMSDP=2.12D-05 MaxDP=3.57D-04 DE=-3.54D-04 OVMax= 1.31D-03

 Cycle   7  Pass 1  IDiag  1:
 RMSU=  1.08D-05    CP:  9.86D-01  4.25D-01  6.33D-01  6.36D-01  6.56D-01
                    CP:  7.30D-01
 E= -304.008321392831     Delta-E=       -0.000021835506 Rises=F Damp=F
 DIIS: error= 8.43D-05 at cycle   7 NSaved=   7.
 NSaved= 7 IEnMin= 7 EnMin= -304.008321392831     IErMin= 7 ErrMin= 8.43D-05
 ErrMax= 8.43D-05  0.00D+00 EMaxC= 1.00D-01 BMatC= 4.63D-07 BMatP= 2.71D-05
 IDIUse=1 WtCom= 1.00D+00 WtEn= 0.00D+00
 Coeff-Com:  0.560D-03-0.658D-03 0.619D-02 0.106D-01 0.514D-01 0.162D+00
 Coeff-Com:  0.770D+00
 Coeff:      0.560D-03-0.658D-03 0.619D-02 0.106D-01 0.514D-01 0.162D+00
 Coeff:      0.770D+00
 Gap=     0.223 Goal=   None    Shift=    0.000
 RMSDP=5.82D-06 MaxDP=8.63D-05 DE=-2.18D-05 OVMax= 2.85D-04

 Cycle   8  Pass 1  IDiag  1:
 RMSU=  3.80D-06    CP:  9.86D-01  4.25D-01  6.33D-01  6.35D-01  6.63D-01
                    CP:  7.16D-01  7.96D-01
 E= -304.008321729726     Delta-E=       -0.000000336895 Rises=F Damp=F
 DIIS: error= 2.77D-05 at cycle   8 NSaved=   8.
 NSaved= 8 IEnMin= 8 EnMin= -304.008321729726     IErMin= 8 ErrMin= 2.77D-05
 ErrMax= 2.77D-05  0.00D+00 EMaxC= 1.00D-01 BMatC= 1.08D-07 BMatP= 4.63D-07
 IDIUse=1 WtCom= 1.00D+00 WtEn= 0.00D+00
 Coeff-Com:  0.225D-03-0.388D-03 0.137D-02 0.153D-02 0.151D-01 0.552D-01
 Coeff-Com:  0.446D+00 0.481D+00
 Coeff:      0.225D-03-0.388D-03 0.137D-02 0.153D-02 0.151D-01 0.552D-01
 Coeff:      0.446D+00 0.481D+00
 Gap=     0.223 Goal=   None    Shift=    0.000
 RMSDP=1.93D-06 MaxDP=3.04D-05 DE=-3.37D-07 OVMax= 8.41D-05

 Cycle   9  Pass 1  IDiag  1:
 RMSU=  7.81D-07    CP:  9.86D-01  4.25D-01  6.33D-01  6.35D-01  6.62D-01
                    CP:  7.30D-01  8.51D-01  6.63D-01
 E= -304.008321802764     Delta-E=       -0.000000073038 Rises=F Damp=F
 DIIS: error= 2.97D-06 at cycle   9 NSaved=   9.
 NSaved= 9 IEnMin= 9 EnMin= -304.008321802764     IErMin= 9 ErrMin= 2.97D-06
 ErrMax= 2.97D-06  0.00D+00 EMaxC= 1.00D-01 BMatC= 1.51D-09 BMatP= 1.08D-07
 IDIUse=1 WtCom= 1.00D+00 WtEn= 0.00D+00
 Coeff-Com:  0.498D-04-0.817D-04-0.151D-04-0.348D-03 0.103D-02 0.568D-02
 Coeff-Com:  0.937D-01 0.153D+00 0.747D+00
 Coeff:      0.498D-04-0.817D-04-0.151D-04-0.348D-03 0.103D-02 0.568D-02
 Coeff:      0.937D-01 0.153D+00 0.747D+00
 Gap=     0.223 Goal=   None    Shift=    0.000
 RMSDP=2.48D-07 MaxDP=4.68D-06 DE=-7.30D-08 OVMax= 8.59D-06

 Cycle  10  Pass 1  IDiag  1:
 RMSU=  1.28D-07    CP:  9.86D-01  4.25D-01  6.33D-01  6.35D-01  6.62D-01
                    CP:  7.30D-01  8.59D-01  6.59D-01  8.22D-01
 E= -304.008321803930     Delta-E=       -0.000000001167 Rises=F Damp=F
 DIIS: error= 1.27D-06 at cycle  10 NSaved=  10.
 NSaved=10 IEnMin=10 EnMin= -304.008321803930     IErMin=10 ErrMin= 1.27D-06
 ErrMax= 1.27D-06  0.00D+00 EMaxC= 1.00D-01 BMatC= 1.06D-10 BMatP= 1.51D-09
 IDIUse=1 WtCom= 1.00D+00 WtEn= 0.00D+00
 Coeff-Com:  0.214D-04-0.353D-04-0.254D-04-0.179D-03 0.252D-03 0.188D-02
 Coeff-Com:  0.378D-01 0.662D-01 0.354D+00 0.540D+00
 Coeff:      0.214D-04-0.353D-04-0.254D-04-0.179D-03 0.252D-03 0.188D-02
 Coeff:      0.378D-01 0.662D-01 0.354D+00 0.540D+00
 Gap=     0.223 Goal=   None    Shift=    0.000
 RMSDP=6.51D-08 MaxDP=1.95D-06 DE=-1.17D-09 OVMax= 6.59D-06

 Cycle  11  Pass 1  IDiag  1:
 RMSU=  5.28D-08    CP:  9.86D-01  4.25D-01  6.33D-01  6.35D-01  6.62D-01
                    CP:  7.30D-01  8.58D-01  6.62D-01  8.33D-01  7.30D-01
 E= -304.008321803984     Delta-E=       -0.000000000054 Rises=F Damp=F
 DIIS: error= 9.04D-07 at cycle  11 NSaved=  11.
 NSaved=11 IEnMin=11 EnMin= -304.008321803984     IErMin=11 ErrMin= 9.04D-07
 ErrMax= 9.04D-07  0.00D+00 EMaxC= 1.00D-01 BMatC= 4.76D-11 BMatP= 1.06D-10
 IDIUse=1 WtCom= 1.00D+00 WtEn= 0.00D+00
 Coeff-Com:  0.539D-05-0.915D-05-0.114D-04-0.470D-04-0.273D-04 0.175D-03
 Coeff-Com:  0.720D-02 0.154D-01 0.934D-01 0.396D+00 0.488D+00
 Coeff:      0.539D-05-0.915D-05-0.114D-04-0.470D-04-0.273D-04 0.175D-03
 Coeff:      0.720D-02 0.154D-01 0.934D-01 0.396D+00 0.488D+00
 Gap=     0.223 Goal=   None    Shift=    0.000
 RMSDP=2.82D-08 MaxDP=8.08D-07 DE=-5.38D-11 OVMax= 2.81D-06

 Cycle  12  Pass 1  IDiag  1:
 RMSU=  1.10D-08    CP:  9.86D-01  4.25D-01  6.33D-01  6.35D-01  6.62D-01
                    CP:  7.30D-01  8.58D-01  6.63D-01  8.36D-01  7.90D-01
                    CP:  5.49D-01
 E= -304.008321804023     Delta-E=       -0.000000000038 Rises=F Damp=F
 DIIS: error= 7.54D-08 at cycle  12 NSaved=  12.
 NSaved=12 IEnMin=12 EnMin= -304.008321804023     IErMin=12 ErrMin= 7.54D-08
 ErrMax= 7.54D-08  0.00D+00 EMaxC= 1.00D-01 BMatC= 4.74D-13 BMatP= 4.76D-11
 IDIUse=1 WtCom= 1.00D+00 WtEn= 0.00D+00
 Coeff-Com:  0.689D-06-0.116D-05 0.182D-06-0.285D-05-0.131D-04-0.419D-04
 Coeff-Com:  0.100D-03 0.107D-02 0.696D-02 0.720D-01 0.117D+00 0.803D+00
 Coeff:      0.689D-06-0.116D-05 0.182D-06-0.285D-05-0.131D-04-0.419D-04
 Coeff:      0.100D-03 0.107D-02 0.696D-02 0.720D-01 0.117D+00 0.803D+00
 Gap=     0.223 Goal=   None    Shift=    0.000
 RMSDP=4.23D-09 MaxDP=6.90D-08 DE=-3.84D-11 OVMax= 2.63D-07

 Error on total polarization charges =  0.01067
 SCF Done:  E(RB-P86) =  -304.008321804     A.U. after   12 cycles
            NFock= 12  Conv=0.42D-08     -V/T= 2.0033
 KE= 3.030005220034D+02 PE=-1.207997529130D+03 EE= 3.523066062291D+02
 Leave Link  502 at Mon Feb 22 21:12:56 2021, MaxMem=   104857600 cpu:             188.5 elap:               6.0
 (Enter /sw/arch/RedHatEnterpriseServer7/EB_production/2019/software/Gaussian/g16.c01/l601.exe)
 Copying SCF densities to generalized density rwf, IOpCl= 0 IROHF=0.

 **********************************************************************

            Population analysis using the SCF Density.

 **********************************************************************

 Orbital symmetries:
       Occupied  (A) (A) (A) (A) (A) (A) (A) (A) (A) (A) (A) (A)
                 (A) (A) (A) (A) (A) (A) (A) (A) (A) (A) (A) (A)
       Virtual   (A) (A) (A) (A) (A) (A) (A) (A) (A) (A) (A) (A)
                 (A) (A) (A) (A) (A) (A) (A) (A) (A) (A) (A) (A)
                 (A) (A) (A) (A) (A) (A) (A) (A) (A) (A) (A) (A)
                 (A) (A) (A) (A) (A) (A) (A) (A) (A) (A) (A) (A)
                 (A) (A) (A) (A) (A) (A) (A) (A) (A) (A) (A) (A)
                 (A) (A) (A) (A) (A) (A) (A) (A) (A) (A) (A) (A)
                 (A) (A) (A) (A) (A) (A) (A) (A) (A) (A) (A) (A)
                 (A) (A) (A) (A) (A) (A) (A) (A) (A) (A) (A) (A)
                 (A) (A) (A) (A) (A) (A) (A) (A) (A) (A) (A) (A)
                 (A) (A) (A) (A) (A) (A) (A) (A) (A) (A) (A) (A)
                 (A) (A) (A) (A) (A) (A) (A) (A) (A) (A) (A) (A)
                 (A) (A) (A) (A) (A) (A)
 The electronic state is 1-A.
 Alpha  occ. eigenvalues --  -18.72330 -14.01652 -14.01630 -10.00663  -9.92235
 Alpha  occ. eigenvalues --   -9.92216  -0.95610  -0.85562  -0.84205  -0.67208
 Alpha  occ. eigenvalues --   -0.61395  -0.54178  -0.52503  -0.45601  -0.42114
 Alpha  occ. eigenvalues --   -0.40494  -0.39308  -0.38031  -0.35034  -0.34384
 Alpha  occ. eigenvalues --   -0.33851  -0.22584  -0.22285  -0.20756
 Alpha virt. eigenvalues --    0.01540   0.01905   0.04779   0.04955   0.07645
 Alpha virt. eigenvalues --    0.08017   0.10938   0.11297   0.11648   0.12892
 Alpha virt. eigenvalues --    0.15493   0.16559   0.18305   0.19214   0.20544
 Alpha virt. eigenvalues --    0.22150   0.22993   0.24838   0.25334   0.30382
 Alpha virt. eigenvalues --    0.31085   0.33364   0.35329   0.36682   0.36935
 Alpha virt. eigenvalues --    0.38157   0.38492   0.40630   0.41578   0.44446
 Alpha virt. eigenvalues --    0.44729   0.44861   0.46478   0.47152   0.47820
 Alpha virt. eigenvalues --    0.51791   0.51856   0.53278   0.55414   0.55671
 Alpha virt. eigenvalues --    0.62193   0.64738   0.68783   0.72688   0.75860
 Alpha virt. eigenvalues --    0.86294   1.07930   1.10966   1.17095   1.17787
 Alpha virt. eigenvalues --    1.21860   1.21870   1.24632   1.26275   1.30526
 Alpha virt. eigenvalues --    1.31241   1.31314   1.36200   1.40217   1.44313
 Alpha virt. eigenvalues --    1.45909   1.46062   1.48023   1.48339   1.50265
 Alpha virt. eigenvalues --    1.51946   1.54911   1.54955   1.60425   1.65364
 Alpha virt. eigenvalues --    1.69804   1.70935   1.71734   1.71918   1.74381
 Alpha virt. eigenvalues --    1.76634   1.77469   1.80559   1.82435   1.88951
 Alpha virt. eigenvalues --    1.92811   2.02663   2.05629   2.09955   2.12324
 Alpha virt. eigenvalues --    2.16500   2.21026   2.21078   2.22369   2.24431
 Alpha virt. eigenvalues --    2.25750   2.28228   2.30986   2.31324   2.36278
 Alpha virt. eigenvalues --    2.38773   2.39535   2.43444   2.46752   2.49122
 Alpha virt. eigenvalues --    2.51699   2.54431   2.55018   2.57533   2.58925
 Alpha virt. eigenvalues --    2.60853   2.66281   2.67657   2.69820   2.70023
 Alpha virt. eigenvalues --    2.72701   2.75668   2.78284   2.79940   2.79946
 Alpha virt. eigenvalues --    2.98773   3.05617   3.09880   3.10439   3.15096
 Alpha virt. eigenvalues --    3.19398   3.21890   3.22347   3.26318   3.34269
 Alpha virt. eigenvalues --    3.39158   3.41713   3.57603   3.60802   3.76285
 Alpha virt. eigenvalues --    3.94665   4.13581  21.69387  21.78311  21.78614
 Alpha virt. eigenvalues --   31.51648  31.52003  43.17909
          Condensed to atoms (all electrons):
               1          2          3          4          5          6
     1  C    4.893644   0.261230  -0.057838   0.009313   0.006895  -0.000719
     2  N    0.261230   6.750924   0.355800  -0.135553  -0.166837   0.006882
     3  C   -0.057838   0.355800   4.565060   0.639613   0.355662  -0.057486
     4  O    0.009313  -0.135553   0.639613   8.064057  -0.135998   0.009432
     5  N    0.006895  -0.166837   0.355662  -0.135998   6.750806   0.261805
     6  C   -0.000719   0.006882  -0.057486   0.009432   0.261805   4.893172
     7  H    0.420080  -0.057041  -0.013293   0.007075   0.000682  -0.000014
     8  H    0.372811  -0.025578   0.016914   0.002576   0.001037   0.000026
     9  H    0.422798  -0.059039  -0.012760   0.005130   0.000453  -0.000041
    10  H   -0.033143   0.355581  -0.026886   0.006137   0.007411   0.000475
    11  H    0.000476   0.007527  -0.027019   0.006192   0.355853  -0.033490
    12  H   -0.000052   0.000500  -0.013033   0.005489  -0.059367   0.423137
    13  H    0.000026   0.001032   0.016900   0.002547  -0.025422   0.372729
    14  H   -0.000004   0.000614  -0.012846   0.006523  -0.056903   0.419498
               7          8          9         10         11         12
     1  C    0.420080   0.372811   0.422798  -0.033143   0.000476  -0.000052
     2  N   -0.057041  -0.025578  -0.059039   0.355581   0.007527   0.000500
     3  C   -0.013293   0.016914  -0.012760  -0.026886  -0.027019  -0.013033
     4  O    0.007075   0.002576   0.005130   0.006137   0.006192   0.005489
     5  N    0.000682   0.001037   0.000453   0.007411   0.355853  -0.059367
     6  C   -0.000014   0.000026  -0.000041   0.000475  -0.033490   0.423137
     7  H    0.566435  -0.024765  -0.047080   0.004582  -0.000063  -0.000038
     8  H   -0.024765   0.542981  -0.025797  -0.007762  -0.000278  -0.000004
     9  H   -0.047080  -0.025797   0.568273   0.003969  -0.000042   0.000019
    10  H    0.004582  -0.007762   0.003969   0.423536  -0.000745  -0.000045
    11  H   -0.000063  -0.000278  -0.000042  -0.000745   0.424053   0.004134
    12  H   -0.000038  -0.000004   0.000019  -0.000045   0.004134   0.568344
    13  H   -0.000003  -0.000005  -0.000003  -0.000277  -0.007900  -0.025928
    14  H    0.000012  -0.000003  -0.000038  -0.000056   0.004485  -0.046924
              13         14
     1  C    0.000026  -0.000004
     2  N    0.001032   0.000614
     3  C    0.016900  -0.012846
     4  O    0.002547   0.006523
     5  N   -0.025422  -0.056903
     6  C    0.372729   0.419498
     7  H   -0.000003   0.000012
     8  H   -0.000005  -0.000003
     9  H   -0.000003  -0.000038
    10  H   -0.000277  -0.000056
    11  H   -0.007900   0.004485
    12  H   -0.025928  -0.046924
    13  H    0.543677  -0.024980
    14  H   -0.024980   0.567112
 Mulliken charges:
               1
     1  C   -0.295516
     2  N   -0.296041
     3  C    0.271212
     4  O   -0.492533
     5  N   -0.296078
     6  C   -0.295405
     7  H    0.143431
     8  H    0.147847
     9  H    0.144158
    10  H    0.267224
    11  H    0.266816
    12  H    0.143768
    13  H    0.147606
    14  H    0.143511
 Sum of Mulliken charges =  -0.00000
 Mulliken charges with hydrogens summed into heavy atoms:
               1
     1  C    0.139920
     2  N   -0.028817
     3  C    0.271212
     4  O   -0.492533
     5  N   -0.029262
     6  C    0.139480
 Electronic spatial extent (au):  <R**2>=            692.1354
 Charge=              0.0000 electrons
 Dipole moment (field-independent basis, Debye):
    X=              0.0010    Y=             -6.0793    Z=              0.0171  Tot=              6.0793
 Quadrupole moment (field-independent basis, Debye-Ang):
   XX=            -27.8735   YY=            -37.9635   ZZ=            -38.3595
   XY=             -0.0011   XZ=              0.0336   YZ=              0.0126
 Traceless Quadrupole moment (field-independent basis, Debye-Ang):
   XX=              6.8587   YY=             -3.2314   ZZ=             -3.6273
   XY=             -0.0011   XZ=              0.0336   YZ=              0.0126
 Octapole moment (field-independent basis, Debye-Ang**2):
  XXX=              0.0084  YYY=            -23.2990  ZZZ=             -0.0145  XYY=              0.0151
  XXY=             -7.6518  XXZ=              0.1047  XZZ=             -0.0053  YZZ=              1.3580
  YYZ=              0.0157  XYZ=             -0.0052
 Hexadecapole moment (field-independent basis, Debye-Ang**3):
 XXXX=           -644.4471 YYYY=           -149.1087 ZZZZ=            -52.2723 XXXY=             -0.0189
 XXXZ=              0.7608 YYYX=             -0.0155 YYYZ=              0.0684 ZZZX=             -0.3128
 ZZZY=              0.0047 XXYY=           -132.4972 XXZZ=           -128.4176 YYZZ=            -35.9443
 XXYZ=             -0.1788 YYXZ=              0.3762 ZZXY=             -0.0110
 N-N= 2.486820790934D+02 E-N=-1.207997529875D+03  KE= 3.030005220034D+02
 No NMR shielding tensors so no spin-rotation constants.
 Leave Link  601 at Mon Feb 22 21:12:57 2021, MaxMem=   104857600 cpu:               4.5 elap:               0.2
 (Enter /sw/arch/RedHatEnterpriseServer7/EB_production/2019/software/Gaussian/g16.c01/l701.exe)
 ... and contract with generalized density number  0.
 Compute integral first derivatives.
 R6Disp: Adding Grimme-D3 dispersion energy 1st derivatives to the gradient.
 PrsmSu:  requested number of processors reduced to:  30 ShMem   1 Linda.
 D1PCM: PCM CHGder 1st derivatives, ID1Alg=3 FixD1E=F DoIter=F DoCFld=F I1PDM=0.
 GePol: Maximum number of non-zero 1st derivatives   =     215
 CoulSu:  requested number of processors reduced to:  29 ShMem   1 Linda.
 CoulSu:  requested number of processors reduced to:  30 ShMem   1 Linda.
 Leave Link  701 at Mon Feb 22 21:12:57 2021, MaxMem=   104857600 cpu:              17.0 elap:               0.6
 (Enter /sw/arch/RedHatEnterpriseServer7/EB_production/2019/software/Gaussian/g16.c01/l702.exe)
 L702 exits ... SP integral derivatives will be done elsewhere.
 Leave Link  702 at Mon Feb 22 21:12:57 2021, MaxMem=   104857600 cpu:               0.5 elap:               0.0
 (Enter /sw/arch/RedHatEnterpriseServer7/EB_production/2019/software/Gaussian/g16.c01/l703.exe)
 Integral derivatives from FoFJK, PRISM(SPDF).
 Compute integral first derivatives, UseDBF=F ICtDFT=           0.
 Calling FoFJK, ICntrl=      2527 FMM=F ISym2X=0 I1Cent= 0 IOpClX= 0 NMat=1 NMatS=1 NMatT=0.
 FoFJK:  IHMeth= 1 ICntrl=    2527 DoSepK=F KAlg= 0 I1Cent=           0 FoldK=F
 IRaf=         0 NMat=       1 IRICut=       1 DoRegI=T DoRafI=F ISym2E= 0 IDoP0=0 IntGTp=1.
 FoFCou: FMM=F IPFlag=           0 FMFlag=      100000 FMFlg1=         800
         NFxFlg=           0 DoJE=F BraDBF=F KetDBF=F FulRan=T
         wScrn=  0.000000 ICntrl=      2527 IOpCl=  0 I1Cent=           0 NGrid=           0
         NMat0=    1 NMatS0=      1 NMatT0=    0 NMatD0=    1 NMtDS0=    0 NMtDT0=    0
 Symmetry not used in FoFCou.
 Leave Link  703 at Mon Feb 22 21:12:58 2021, MaxMem=   104857600 cpu:              22.5 elap:               0.8
 (Enter /sw/arch/RedHatEnterpriseServer7/EB_production/2019/software/Gaussian/g16.c01/l716.exe)
 Dipole        = 3.77602526D-04-2.39178019D+00 6.71994546D-03
 ***** Axes restored to original set *****
 -------------------------------------------------------------------
 Center     Atomic                   Forces (Hartrees/Bohr)
 Number     Number              X              Y              Z
 -------------------------------------------------------------------
      1        6          -0.005505677   -0.007820076   -0.004058113
      2        7          -0.014771109    0.003868062    0.004087938
      3        6          -0.027749788   -0.011040480   -0.001784836
      4        8          -0.000165631   -0.000206852   -0.000259736
      5        7          -0.007157904   -0.013379923   -0.005922396
      6        6          -0.010465385    0.002544690    0.002717400
      7        1          -0.004318615   -0.002965087   -0.005748915
      8        1           0.004353167   -0.000809448   -0.001458354
      9        1          -0.003106538   -0.008541334    0.001271590
     10        1           0.039293456    0.017167342    0.003616673
     11        1           0.040960747    0.016038954    0.002625950
     12        1          -0.007719274    0.003270425   -0.001719283
     13        1           0.002134853    0.003108829    0.001864419
     14        1          -0.005782301   -0.001235100    0.004767663
 -------------------------------------------------------------------
 Cartesian Forces:  Max     0.040960747 RMS     0.011701191
 Leave Link  716 at Mon Feb 22 21:12:58 2021, MaxMem=   104857600 cpu:               0.8 elap:               0.1
 (Enter /sw/arch/RedHatEnterpriseServer7/EB_production/2019/software/Gaussian/g16.c01/l103.exe)

 GradGradGradGradGradGradGradGradGradGradGradGradGradGradGradGradGradGrad
 Berny optimization.
 FormGI is forming the generalized inverse of G from B-inverse, IUseBI=4.
 Internal  Forces:  Max     0.044031717 RMS     0.010505294
 Search for a local minimum.
 Step number   1 out of a maximum of   64
 All quantities printed in internal units (Hartrees-Bohrs-Radians)
 RMS Force = .10505D-01 SwitMx=.10000D-02 MixMth= 1
 Mixed Optimization -- RFO/linear search
 Second derivative matrix not updated -- first step.
 ITU=  0
     Eigenvalues ---    0.01378   0.01388   0.01730   0.01735   0.02255
     Eigenvalues ---    0.02256   0.02258   0.07680   0.07708   0.07875
     Eigenvalues ---    0.07889   0.16000   0.16000   0.16000   0.16000
     Eigenvalues ---    0.16000   0.16000   0.16000   0.16000   0.22000
     Eigenvalues ---    0.22000   0.25000   0.25000   0.34639   0.34676
     Eigenvalues ---    0.34690   0.34815   0.34815   0.34911   0.41910
     Eigenvalues ---    0.42016   0.53055   0.53239   0.53465   0.53517
     Eigenvalues ---    0.81550
 RFO step:  Lambda=-1.32075476D-02 EMin= 1.37846862D-02
 Linear search not attempted -- first point.
 Iteration  1 RMS(Cart)=  0.04384560 RMS(Int)=  0.00049968
 Iteration  2 RMS(Cart)=  0.00123734 RMS(Int)=  0.00012236
 Iteration  3 RMS(Cart)=  0.00000057 RMS(Int)=  0.00012236
 ITry= 1 IFail=0 DXMaxC= 1.52D-01 DCOld= 1.00D+10 DXMaxT= 3.00D-01 DXLimC= 3.00D+00 Rises=F
 Variable       Old X    -DE/DX   Delta X   Delta X   Delta X     New X
                                 (Linear)    (Quad)   (Total)
    R1        2.69038   0.02278   0.00000   0.05269   0.05269   2.74306
    R2        2.06203   0.00688   0.00000   0.01910   0.01910   2.08113
    R3        2.05820   0.00465   0.00000   0.01284   0.01284   2.07104
    R4        2.05976   0.00808   0.00000   0.02236   0.02236   2.08213
    R5        2.56474   0.01311   0.00000   0.02390   0.02390   2.58864
    R6        1.83603   0.04299   0.00000   0.07906   0.07906   1.91509
    R7        2.37090   0.00025   0.00000   0.00030   0.00030   2.37121
    R8        2.56522   0.01302   0.00000   0.02377   0.02377   2.58899
    R9        2.68903   0.02302   0.00000   0.05313   0.05313   2.74215
   R10        1.83431   0.04403   0.00000   0.08070   0.08070   1.91501
   R11        2.06181   0.00737   0.00000   0.02046   0.02046   2.08227
   R12        2.05977   0.00419   0.00000   0.01159   0.01159   2.07136
   R13        2.06264   0.00672   0.00000   0.01868   0.01868   2.08133
    A1        1.92686   0.00421   0.00000   0.02458   0.02437   1.95123
    A2        1.90412  -0.00219   0.00000  -0.01378  -0.01369   1.89043
    A3        1.92438   0.00551   0.00000   0.03272   0.03252   1.95690
    A4        1.89942  -0.00140   0.00000  -0.00982  -0.00973   1.88969
    A5        1.90837  -0.00456   0.00000  -0.02418  -0.02463   1.88374
    A6        1.90029  -0.00173   0.00000  -0.01047  -0.01038   1.88991
    A7        2.17280  -0.01011   0.00000  -0.04335  -0.04335   2.12946
    A8        2.05573   0.00332   0.00000   0.01169   0.01168   2.06742
    A9        2.05465   0.00678   0.00000   0.03166   0.03166   2.08631
   A10        2.11999   0.00222   0.00000   0.00843   0.00843   2.12842
   A11        2.04527  -0.00500   0.00000  -0.01900  -0.01900   2.02627
   A12        2.11792   0.00278   0.00000   0.01057   0.01057   2.12849
   A13        2.17704  -0.01080   0.00000  -0.04633  -0.04633   2.13071
   A14        2.05337   0.00703   0.00000   0.03258   0.03258   2.08595
   A15        2.05273   0.00377   0.00000   0.01375   0.01375   2.06648
   A16        1.92435   0.00541   0.00000   0.03220   0.03203   1.95638
   A17        1.90284  -0.00209   0.00000  -0.01266  -0.01259   1.89025
   A18        1.93125   0.00390   0.00000   0.02215   0.02198   1.95323
   A19        1.89526  -0.00142   0.00000  -0.00749  -0.00742   1.88784
   A20        1.91071  -0.00464   0.00000  -0.02568  -0.02604   1.88467
   A21        1.89885  -0.00132   0.00000  -0.00953  -0.00946   1.88939
    D1        1.01402   0.00043   0.00000   0.00579   0.00599   1.02002
    D2       -2.12927   0.00037   0.00000   0.00378   0.00399  -2.12528
    D3        3.10055  -0.00008   0.00000   0.00010   0.00010   3.10065
    D4       -0.04274  -0.00014   0.00000  -0.00191  -0.00190  -0.04464
    D5       -1.09655  -0.00022   0.00000  -0.00143  -0.00165  -1.09819
    D6        2.04334  -0.00028   0.00000  -0.00344  -0.00365   2.03970
    D7       -0.00113  -0.00009   0.00000  -0.00252  -0.00253  -0.00366
    D8        3.14043  -0.00009   0.00000  -0.00264  -0.00265   3.13778
    D9       -3.14102  -0.00002   0.00000  -0.00050  -0.00049  -3.14151
   D10        0.00054  -0.00003   0.00000  -0.00062  -0.00061  -0.00007
   D11        3.12968   0.00008   0.00000   0.00257   0.00257   3.13225
   D12       -0.00202   0.00009   0.00000   0.00219   0.00219   0.00017
   D13       -0.01195   0.00008   0.00000   0.00245   0.00245  -0.00950
   D14        3.13954   0.00008   0.00000   0.00206   0.00206  -3.14159
   D15       -1.07465  -0.00004   0.00000  -0.00035  -0.00052  -1.07517
   D16        3.12942  -0.00026   0.00000  -0.00274  -0.00275   3.12667
   D17        1.04172   0.00030   0.00000   0.00343   0.00360   1.04532
   D18        2.05706  -0.00002   0.00000   0.00013  -0.00004   2.05702
   D19       -0.02206  -0.00025   0.00000  -0.00226  -0.00227  -0.02433
   D20       -2.10977   0.00032   0.00000   0.00391   0.00408  -2.10568
         Item               Value     Threshold  Converged?
 Maximum Force            0.044032     0.000450     NO 
 RMS     Force            0.010505     0.000300     NO 
 Maximum Displacement     0.151660     0.001800     NO 
 RMS     Displacement     0.043981     0.001200     NO 
 Predicted change in Energy=-6.826757D-03
 Lowest energy point so far.  Saving SCF results.
 GradGradGradGradGradGradGradGradGradGradGradGradGradGradGradGradGradGrad

 Leave Link  103 at Mon Feb 22 21:12:58 2021, MaxMem=   104857600 cpu:               0.8 elap:               0.1
 (Enter /sw/arch/RedHatEnterpriseServer7/EB_production/2019/software/Gaussian/g16.c01/l202.exe)
                          Input orientation:                          
 ---------------------------------------------------------------------
 Center     Atomic      Atomic             Coordinates (Angstroms)
 Number     Number       Type             X           Y           Z
 ---------------------------------------------------------------------
      1          6           0        0.589562   -2.886817   -1.570036
      2          7           0        0.706692   -1.643697   -0.829781
      3          6           0       -0.379256   -1.031954   -0.261469
      4          8           0       -1.535139   -1.511496   -0.353482
      5          7           0       -0.129548    0.133897    0.413387
      6          6           0       -1.185831    0.894599    1.054672
      7          1           0       -0.101805   -2.791852   -2.421992
      8          1           0        1.579675   -3.150725   -1.958784
      9          1           0        0.234979   -3.715358   -0.936169
     10          1           0        1.624065   -1.224155   -0.732657
     11          1           0        0.818614    0.487885    0.464579
     12          1           0       -1.938425    1.249205    0.332162
     13          1           0       -0.735623    1.770128    1.536577
     14          1           0       -1.706221    0.305590    1.826244
 ---------------------------------------------------------------------
                    Distance matrix (angstroms):
                    1          2          3          4          5
     1  C    0.000000
     2  N    1.451567   0.000000
     3  C    2.468092   1.369851   0.000000
     4  O    2.808178   2.295679   1.254788   0.000000
     5  N    3.684535   2.324780   1.370033   2.295886   0.000000
     6  C    4.933581   3.684529   2.468683   2.809664   1.451085
     7  H    1.101288   2.122985   2.800372   2.823560   4.074329
     8  H    1.095945   2.075543   3.347757   3.868608   4.397428
     9  H    1.101815   2.127348   2.834284   2.886147   4.095234
    10  H    2.129753   1.013421   2.066943   3.194825   2.496574
    11  H    3.947245   2.496304   2.066869   3.194824   1.013380
    12  H    5.207279   4.088476   2.826144   2.873016   2.126628
    13  H    5.752765   4.397058   3.348377   3.870479   2.075123
    14  H    5.195845   4.083667   2.812188   2.842935   2.124039
                    6          7          8          9         10
     6  C    0.000000
     7  H    5.181914   0.000000
     8  H    5.752702   1.780654   0.000000
     9  H    5.218606   1.781560   1.781224   0.000000
    10  H    3.947047   2.879263   2.284081   2.859558   0.000000
    11  H    2.128715   4.464991   4.437497   4.468778   2.239019
    12  H    1.101891   5.223857   6.081516   5.565899   4.465723
    13  H    1.096116   6.073192   6.464746   6.094842   4.436585
    14  H    1.101391   5.496891   6.088486   5.250448   4.469776
                   11         12         13         14
    11  H    0.000000
    12  H    2.863286   0.000000
    13  H    2.282319   1.780087   0.000000
    14  H    2.874397   1.782305   1.780685   0.000000
 Stoichiometry    C3H8N2O
 Framework group  C1[X(C3H8N2O)]
 Deg. of freedom    36
 Full point group                 C1      NOp   1
 RotChk:  IX=2 Diff= 2.38D-03
 Largest Abelian subgroup         C1      NOp   1
 Largest concise Abelian subgroup C1      NOp   1
                         Standard orientation:                         
 ---------------------------------------------------------------------
 Center     Atomic      Atomic             Coordinates (Angstroms)
 Number     Number       Type             X           Y           Z
 ---------------------------------------------------------------------
      1          6           0        2.466703   -0.000692    0.000756
      2          7           0        1.162184   -0.637304    0.001728
      3          6           0        0.000212    0.088164   -0.001428
      4          8           0        0.000840    1.342951   -0.001441
      5          7           0       -1.162587   -0.636321   -0.004765
      6          6           0       -2.466878   -0.000387    0.003158
      7          1           0        2.598833    0.662303    0.870132
      8          1           0        3.232071   -0.783780    0.046372
      9          1           0        2.636521    0.596010   -0.909795
     10          1           0        1.119011   -1.649805    0.001548
     11          1           0       -1.119999   -1.648806   -0.004626
     12          1           0       -2.624638    0.610435    0.906580
     13          1           0       -3.232365   -0.784666   -0.017040
     14          1           0       -2.613560    0.647571   -0.875304
 ---------------------------------------------------------------------
 Rotational constants (GHZ):           9.7642322           2.1207176           1.7816218
 Leave Link  202 at Mon Feb 22 21:12:58 2021, MaxMem=   104857600 cpu:               0.4 elap:               0.0
 (Enter /sw/arch/RedHatEnterpriseServer7/EB_production/2019/software/Gaussian/g16.c01/l301.exe)
 Standard basis: TZVP (5D, 7F)
 Ernie: Thresh=  0.10000D-02 Tol=  0.10000D-05 Strict=F.
 There are   168 symmetry adapted cartesian basis functions of A   symmetry.
 There are   162 symmetry adapted basis functions of A   symmetry.
   162 basis functions,   274 primitive gaussians,   168 cartesian basis functions
    24 alpha electrons       24 beta electrons
       nuclear repulsion energy       246.3234297088 Hartrees.
 IExCor=  404 DFT=T Ex=B Corr=P86 ExCW=0 ScaHFX=  0.000000
 ScaDFX=  1.000000  1.000000  1.000000  1.000000 ScalE2=  1.000000  1.000000
 IRadAn=      5 IRanWt=     -1 IRanGd=            0 ICorTp=0 IEmpDi=131
 NAtoms=   14 NActive=   14 NUniq=   14 SFac= 1.00D+00 NAtFMM=   60 NAOKFM=F Big=F
 Integral buffers will be    131072 words long.
 Raffenetti 2 integral format.
 Two-electron integral symmetry is turned on.
 R6Disp:  Grimme-D3 Dispersion energy=       -0.0086149555 Hartrees.
 Nuclear repulsion after empirical dispersion term =      246.3148147533 Hartrees.
 ------------------------------------------------------------------------------
 Polarizable Continuum Model (PCM)
 =================================
 Model                : PCM.
 Atomic radii         : UFF (Universal Force Field).
 Polarization charges : Total charges.
 Charge compensation  : None.
 Solution method      : On-the-fly selection.
 Cavity type          : Scaled VdW (van der Waals Surface) (Alpha=1.100).
 Cavity algorithm     : GePol (No added spheres)
                        Default sphere list used, NSphG=   14.
                        Lebedev-Laikov grids with approx.  5.0 points / Ang**2.
                        Smoothing algorithm: York/Karplus (Gamma=1.0000).
                        Polarization charges: spherical gaussians, with
                                              point-specific exponents (IZeta= 3).
                        Self-potential: point-specific (ISelfS= 7).
                        Self-field    : sphere-specific E.n sum rule (ISelfD= 2).
 1st derivatives      : Analytical E(r).r(x)/FMM algorithm (CHGder, D1EAlg=3).
                        Cavity 1st derivative terms included.
 Solvent              : Water, Eps=  78.355300 Eps(inf)=   1.777849
 ------------------------------------------------------------------------------
 Spheres list:
 ISph  on   Nord     Re0    Alpha      Xe            Ye            Ze
    1   C      1    1.9255  1.100      2.466703     -0.000692      0.000756
    2   N      2    1.8300  1.100      1.162184     -0.637304      0.001728
    3   C      3    1.9255  1.100      0.000212      0.088164     -0.001428
    4   O      4    1.7500  1.100      0.000840      1.342951     -0.001441
    5   N      5    1.8300  1.100     -1.162587     -0.636321     -0.004765
    6   C      6    1.9255  1.100     -2.466878     -0.000387      0.003158
    7   H      7    1.4430  1.100      2.598833      0.662303      0.870132
    8   H      8    1.4430  1.100      3.232071     -0.783780      0.046372
    9   H      9    1.4430  1.100      2.636521      0.596010     -0.909795
   10   H     10    1.4430  1.100      1.119011     -1.649805      0.001548
   11   H     11    1.4430  1.100     -1.119999     -1.648806     -0.004626
   12   H     12    1.4430  1.100     -2.624638      0.610435      0.906580
   13   H     13    1.4430  1.100     -3.232365     -0.784666     -0.017040
   14   H     14    1.4430  1.100     -2.613560      0.647571     -0.875304
 ------------------------------------------------------------------------------
 GePol: Number of generator spheres                  =      14
 GePol: Total number of spheres                      =      14
 GePol: Number of exposed spheres                    =      14 (100.00%)
 GePol: Number of points                             =    1210
 GePol: Average weight of points                     =       0.13
 GePol: Minimum weight of points                     =   0.18D-08
 GePol: Maximum weight of points                     =    0.20577
 GePol: Number of points with low weight             =      77
 GePol: Fraction of low-weight points (<1% of avg)   =       6.36%
 GePol: Cavity surface area                          =    160.380 Ang**2
 GePol: Cavity volume                                =    145.679 Ang**3
 Leave Link  301 at Mon Feb 22 21:12:59 2021, MaxMem=   104857600 cpu:               1.9 elap:               0.1
 (Enter /sw/arch/RedHatEnterpriseServer7/EB_production/2019/software/Gaussian/g16.c01/l302.exe)
 NPDir=0 NMtPBC=     1 NCelOv=     1 NCel=       1 NClECP=     1 NCelD=      1
         NCelK=      1 NCelE2=     1 NClLst=     1 CellRange=     0.0.
 One-electron integrals computed using PRISM.
 One-electron integral symmetry used in STVInt
 PrsmSu:  requested number of processors reduced to:  29 ShMem   1 Linda.
 NBasis=   162 RedAO= T EigKep=  9.14D-04  NBF=   162
 NBsUse=   162 1.00D-06 EigRej= -1.00D+00 NBFU=   162
 Precomputing XC quadrature grid using
 IXCGrd= 4 IRadAn=           5 IRanWt=          -1 IRanGd=           0 AccXCQ= 0.00D+00.
 Generated NRdTot=       0 NPtTot=           0 NUsed=           0 NTot=          32
 NSgBfM=   167   167   167   167   167 MxSgAt=    14 MxSgA2=    14.
 Leave Link  302 at Mon Feb 22 21:12:59 2021, MaxMem=   104857600 cpu:               5.3 elap:               0.2
 (Enter /sw/arch/RedHatEnterpriseServer7/EB_production/2019/software/Gaussian/g16.c01/l303.exe)
 DipDrv:  MaxL=1.
 Leave Link  303 at Mon Feb 22 21:12:59 2021, MaxMem=   104857600 cpu:               1.7 elap:               0.1
 (Enter /sw/arch/RedHatEnterpriseServer7/EB_production/2019/software/Gaussian/g16.c01/l401.exe)
 Initial guess from the checkpoint file:  "MGJKQDOBUOMPEZ-UHFFFAOYSA-N.chk"
 B after Tr=     0.000000    0.000000    0.000000
         Rot=    1.000000    0.000300    0.000110    0.000009 Ang=   0.04 deg.
 Guess basis will be translated and rotated to current coordinates.
 JPrj=2 DoOrth=T DoCkMO=T.
 Generating alternative initial guess.
 ExpMin= 9.52D-02 ExpMax= 2.70D+04 ExpMxC= 9.22D+02 IAcc=3 IRadAn=         5 AccDes= 0.00D+00
 Harris functional with IExCor=  404 and IRadAn=       5 diagonalized for initial guess.
 HarFok:  IExCor=  404 AccDes= 0.00D+00 IRadAn=         5 IDoV= 1 UseB2=F ITyADJ=14
 ICtDFT=  3500011 ScaDFX=  1.000000  1.000000  1.000000  1.000000
 FoFCou: FMM=F IPFlag=           0 FMFlag=      100000 FMFlg1=           0
         NFxFlg=           0 DoJE=T BraDBF=F KetDBF=T FulRan=T
         wScrn=  0.000000 ICntrl=       500 IOpCl=  0 I1Cent=   200000004 NGrid=           0
         NMat0=    1 NMatS0=      1 NMatT0=    0 NMatD0=    1 NMtDS0=    0 NMtDT0=    0
 Petite list used in FoFCou.
 Harris En= -304.116541110771    
 Leave Link  401 at Mon Feb 22 21:12:59 2021, MaxMem=   104857600 cpu:              13.5 elap:               0.5
 (Enter /sw/arch/RedHatEnterpriseServer7/EB_production/2019/software/Gaussian/g16.c01/l502.exe)
 Integral symmetry usage will be decided dynamically.
 Closed shell SCF:
 Using DIIS extrapolation, IDIIS=  1040.
 NGot=   104857600 LenX=   104793598 LenY=   104764933
 Requested convergence on RMS density matrix=1.00D-08 within 128 cycles.
 Requested convergence on MAX density matrix=1.00D-06.
 Requested convergence on             energy=1.00D-06.
 No special actions if energy rises.
 Fock matrices will be formed incrementally for  20 cycles.

 Cycle   1  Pass 1  IDiag  1:
 FoFJK:  IHMeth= 1 ICntrl=     500 DoSepK=F KAlg= 0 I1Cent=           0 FoldK=F
 IRaf= 950000000 NMat=       1 IRICut=       1 DoRegI=T DoRafI=F ISym2E= 0 IDoP0=0 IntGTp=1.
 FoFCou: FMM=F IPFlag=           0 FMFlag=      100000 FMFlg1=           0
         NFxFlg=           0 DoJE=T BraDBF=F KetDBF=F FulRan=T
         wScrn=  0.000000 ICntrl=       500 IOpCl=  0 I1Cent=           0 NGrid=           0
         NMat0=    1 NMatS0=      1 NMatT0=    0 NMatD0=    1 NMtDS0=    0 NMtDT0=    0
 Symmetry not used in FoFCou.
 Inv3:  Mode=1 IEnd=     4392300.
 Iteration    1 A*A^-1 deviation from unit magnitude is 3.33D-15 for    369.
 Iteration    1 A*A^-1 deviation from orthogonality  is 1.55D-15 for    926    364.
 Iteration    1 A^-1*A deviation from unit magnitude is 3.55D-15 for    369.
 Iteration    1 A^-1*A deviation from orthogonality  is 1.86D-15 for    821    200.
 E= -304.013014170616    
 DIIS: error= 2.67D-03 at cycle   1 NSaved=   1.
 NSaved= 1 IEnMin= 1 EnMin= -304.013014170616     IErMin= 1 ErrMin= 2.67D-03
 ErrMax= 2.67D-03  0.00D+00 EMaxC= 1.00D-01 BMatC= 2.08D-03 BMatP= 2.08D-03
 IDIUse=3 WtCom= 9.73D-01 WtEn= 2.67D-02
 Coeff-Com:  0.100D+01
 Coeff-En:   0.100D+01
 Coeff:      0.100D+01
 Gap=     0.518 Goal=   None    Shift=    0.000
 GapD=    0.518 DampG=2.000 DampE=1.000 DampFc=2.0000 IDamp=-1.
 RMSDP=3.44D-04 MaxDP=5.16D-03              OVMax= 1.34D-02

 Cycle   2  Pass 1  IDiag  1:
 RMSU=  3.42D-04    CP:  9.97D-01
 E= -304.014249137246     Delta-E=       -0.001234966630 Rises=F Damp=F
 DIIS: error= 2.86D-03 at cycle   2 NSaved=   2.
 NSaved= 2 IEnMin= 2 EnMin= -304.014249137246     IErMin= 1 ErrMin= 2.67D-03
 ErrMax= 2.86D-03  0.00D+00 EMaxC= 1.00D-01 BMatC= 1.03D-03 BMatP= 2.08D-03
 IDIUse=3 WtCom= 9.71D-01 WtEn= 2.86D-02
 Coeff-Com:  0.378D+00 0.622D+00
 Coeff-En:   0.291D-01 0.971D+00
 Coeff:      0.368D+00 0.632D+00
 Gap=     0.224 Goal=   None    Shift=    0.000
 RMSDP=2.88D-04 MaxDP=6.79D-03 DE=-1.23D-03 OVMax= 2.55D-02

 Cycle   3  Pass 1  IDiag  1:
 RMSU=  2.36D-04    CP:  1.00D+00  5.30D-01
 E= -304.013946875950     Delta-E=        0.000302261295 Rises=F Damp=F
 DIIS: error= 4.58D-03 at cycle   3 NSaved=   3.
 NSaved= 3 IEnMin= 2 EnMin= -304.014249137246     IErMin= 1 ErrMin= 2.67D-03
 ErrMax= 4.58D-03  0.00D+00 EMaxC= 1.00D-01 BMatC= 1.46D-03 BMatP= 1.03D-03
 IDIUse=3 WtCom= 1.29D-01 WtEn= 8.71D-01
 Coeff-Com:  0.642D-01 0.524D+00 0.412D+00
 Coeff-En:   0.000D+00 0.556D+00 0.444D+00
 Coeff:      0.826D-02 0.552D+00 0.440D+00
 Gap=     0.220 Goal=   None    Shift=    0.000
 RMSDP=1.91D-04 MaxDP=5.14D-03 DE= 3.02D-04 OVMax= 1.57D-02

 Cycle   4  Pass 1  IDiag  1:
 RMSU=  7.76D-05    CP:  9.99D-01  7.83D-01  3.63D-01
 E= -304.015026170522     Delta-E=       -0.001079294571 Rises=F Damp=F
 DIIS: error= 9.69D-04 at cycle   4 NSaved=   4.
 NSaved= 4 IEnMin= 4 EnMin= -304.015026170522     IErMin= 4 ErrMin= 9.69D-04
 ErrMax= 9.69D-04  0.00D+00 EMaxC= 1.00D-01 BMatC= 8.94D-05 BMatP= 1.03D-03
 IDIUse=3 WtCom= 9.90D-01 WtEn= 9.69D-03
 Coeff-Com:  0.174D-01 0.329D+00 0.280D+00 0.373D+00
 Coeff-En:   0.000D+00 0.000D+00 0.000D+00 0.100D+01
 Coeff:      0.172D-01 0.326D+00 0.278D+00 0.379D+00
 Gap=     0.220 Goal=   None    Shift=    0.000
 RMSDP=4.58D-05 MaxDP=9.91D-04 DE=-1.08D-03 OVMax= 1.76D-03

 Cycle   5  Pass 1  IDiag  1:
 RMSU=  1.49D-05    CP:  9.99D-01  7.75D-01  4.13D-01  4.65D-01
 E= -304.015092530936     Delta-E=       -0.000066360414 Rises=F Damp=F
 DIIS: error= 9.18D-05 at cycle   5 NSaved=   5.
 NSaved= 5 IEnMin= 5 EnMin= -304.015092530936     IErMin= 5 ErrMin= 9.18D-05
 ErrMax= 9.18D-05  0.00D+00 EMaxC= 1.00D-01 BMatC= 1.74D-06 BMatP= 8.94D-05
 IDIUse=1 WtCom= 1.00D+00 WtEn= 0.00D+00
 Coeff-Com:  0.217D-02 0.105D+00 0.975D-01 0.175D+00 0.620D+00
 Coeff:      0.217D-02 0.105D+00 0.975D-01 0.175D+00 0.620D+00
 Gap=     0.220 Goal=   None    Shift=    0.000
 RMSDP=5.59D-06 MaxDP=1.90D-04 DE=-6.64D-05 OVMax= 4.07D-04

 Cycle   6  Pass 1  IDiag  1:
 RMSU=  4.00D-06    CP:  9.99D-01  7.77D-01  4.12D-01  4.74D-01  7.54D-01
 E= -304.015093667578     Delta-E=       -0.000001136641 Rises=F Damp=F
 DIIS: error= 4.92D-05 at cycle   6 NSaved=   6.
 NSaved= 6 IEnMin= 6 EnMin= -304.015093667578     IErMin= 6 ErrMin= 4.92D-05
 ErrMax= 4.92D-05  0.00D+00 EMaxC= 1.00D-01 BMatC= 2.19D-07 BMatP= 1.74D-06
 IDIUse=1 WtCom= 1.00D+00 WtEn= 0.00D+00
 Coeff-Com:  0.191D-04 0.357D-01 0.365D-01 0.680D-01 0.336D+00 0.524D+00
 Coeff:      0.191D-04 0.357D-01 0.365D-01 0.680D-01 0.336D+00 0.524D+00
 Gap=     0.220 Goal=   None    Shift=    0.000
 RMSDP=2.22D-06 MaxDP=5.52D-05 DE=-1.14D-06 OVMax= 1.44D-04

 Cycle   7  Pass 1  IDiag  1:
 RMSU=  1.35D-06    CP:  9.99D-01  7.77D-01  4.13D-01  4.82D-01  7.48D-01
                    CP:  6.02D-01
 E= -304.015093842904     Delta-E=       -0.000000175327 Rises=F Damp=F
 DIIS: error= 8.00D-06 at cycle   7 NSaved=   7.
 NSaved= 7 IEnMin= 7 EnMin= -304.015093842904     IErMin= 7 ErrMin= 8.00D-06
 ErrMax= 8.00D-06  0.00D+00 EMaxC= 1.00D-01 BMatC= 8.08D-09 BMatP= 2.19D-07
 IDIUse=1 WtCom= 1.00D+00 WtEn= 0.00D+00
 Coeff-Com: -0.104D-03 0.530D-02 0.706D-02 0.116D-01 0.801D-01 0.211D+00
 Coeff-Com:  0.685D+00
 Coeff:     -0.104D-03 0.530D-02 0.706D-02 0.116D-01 0.801D-01 0.211D+00
 Coeff:      0.685D+00
 Gap=     0.220 Goal=   None    Shift=    0.000
 RMSDP=5.98D-07 MaxDP=6.92D-06 DE=-1.75D-07 OVMax= 3.44D-05

 Cycle   8  Pass 1  IDiag  1:
 RMSU=  2.52D-07    CP:  9.99D-01  7.76D-01  4.14D-01  4.80D-01  7.57D-01
                    CP:  6.29D-01  7.69D-01
 E= -304.015093855068     Delta-E=       -0.000000012163 Rises=F Damp=F
 DIIS: error= 8.46D-07 at cycle   8 NSaved=   8.
 NSaved= 8 IEnMin= 8 EnMin= -304.015093855068     IErMin= 8 ErrMin= 8.46D-07
 ErrMax= 8.46D-07  0.00D+00 EMaxC= 1.00D-01 BMatC= 1.07D-10 BMatP= 8.08D-09
 IDIUse=1 WtCom= 1.00D+00 WtEn= 0.00D+00
 Coeff-Com: -0.208D-04 0.680D-03 0.101D-02 0.178D-02 0.132D-01 0.452D-01
 Coeff-Com:  0.183D+00 0.755D+00
 Coeff:     -0.208D-04 0.680D-03 0.101D-02 0.178D-02 0.132D-01 0.452D-01
 Coeff:      0.183D+00 0.755D+00
 Gap=     0.220 Goal=   None    Shift=    0.000
 RMSDP=6.89D-08 MaxDP=1.18D-06 DE=-1.22D-08 OVMax= 3.82D-06

 Cycle   9  Pass 1  IDiag  1:
 RMSU=  4.81D-08    CP:  9.99D-01  7.76D-01  4.14D-01  4.80D-01  7.57D-01
                    CP:  6.36D-01  7.79D-01  8.68D-01
 E= -304.015093855130     Delta-E=       -0.000000000063 Rises=F Damp=F
 DIIS: error= 6.67D-07 at cycle   9 NSaved=   9.
 NSaved= 9 IEnMin= 9 EnMin= -304.015093855130     IErMin= 9 ErrMin= 6.67D-07
 ErrMax= 6.67D-07  0.00D+00 EMaxC= 1.00D-01 BMatC= 3.83D-11 BMatP= 1.07D-10
 IDIUse=1 WtCom= 1.00D+00 WtEn= 0.00D+00
 Coeff-Com: -0.847D-05 0.205D-03 0.316D-03 0.628D-03 0.469D-02 0.186D-01
 Coeff-Com:  0.827D-01 0.468D+00 0.425D+00
 Coeff:     -0.847D-05 0.205D-03 0.316D-03 0.628D-03 0.469D-02 0.186D-01
 Coeff:      0.827D-01 0.468D+00 0.425D+00
 Gap=     0.220 Goal=   None    Shift=    0.000
 RMSDP=3.15D-08 MaxDP=7.38D-07 DE=-6.25D-11 OVMax= 2.66D-06

 Cycle  10  Pass 1  IDiag  1:
 RMSU=  1.76D-08    CP:  9.99D-01  7.76D-01  4.14D-01  4.80D-01  7.57D-01
                    CP:  6.35D-01  7.82D-01  8.93D-01  5.62D-01
 E= -304.015093855162     Delta-E=       -0.000000000032 Rises=F Damp=F
 DIIS: error= 2.06D-07 at cycle  10 NSaved=  10.
 NSaved=10 IEnMin=10 EnMin= -304.015093855162     IErMin=10 ErrMin= 2.06D-07
 ErrMax= 2.06D-07  0.00D+00 EMaxC= 1.00D-01 BMatC= 2.88D-12 BMatP= 3.83D-11
 IDIUse=1 WtCom= 1.00D+00 WtEn= 0.00D+00
 Coeff-Com: -0.219D-05 0.173D-04 0.254D-04 0.103D-03 0.722D-03 0.397D-02
 Coeff-Com:  0.202D-01 0.155D+00 0.244D+00 0.576D+00
 Coeff:     -0.219D-05 0.173D-04 0.254D-04 0.103D-03 0.722D-03 0.397D-02
 Coeff:      0.202D-01 0.155D+00 0.244D+00 0.576D+00
 Gap=     0.220 Goal=   None    Shift=    0.000
 RMSDP=9.28D-09 MaxDP=2.15D-07 DE=-3.22D-11 OVMax= 7.68D-07

 Error on total polarization charges =  0.01076
 SCF Done:  E(RB-P86) =  -304.015093855     A.U. after   10 cycles
            NFock= 10  Conv=0.93D-08     -V/T= 2.0047
 KE= 3.026021883216D+02 PE=-1.203077925622D+03 EE= 3.501458286922D+02
 Leave Link  502 at Mon Feb 22 21:13:04 2021, MaxMem=   104857600 cpu:             159.8 elap:               5.1
 (Enter /sw/arch/RedHatEnterpriseServer7/EB_production/2019/software/Gaussian/g16.c01/l701.exe)
 ... and contract with generalized density number  0.
 Compute integral first derivatives.
 R6Disp: Adding Grimme-D3 dispersion energy 1st derivatives to the gradient.
 PrsmSu:  requested number of processors reduced to:  30 ShMem   1 Linda.
 D1PCM: PCM CHGder 1st derivatives, ID1Alg=3 FixD1E=F DoIter=F DoCFld=F I1PDM=0.
 GePol: Maximum number of non-zero 1st derivatives   =     216
 CoulSu:  requested number of processors reduced to:  29 ShMem   1 Linda.
 CoulSu:  requested number of processors reduced to:  30 ShMem   1 Linda.
 Leave Link  701 at Mon Feb 22 21:13:05 2021, MaxMem=   104857600 cpu:              17.9 elap:               0.6
 (Enter /sw/arch/RedHatEnterpriseServer7/EB_production/2019/software/Gaussian/g16.c01/l702.exe)
 L702 exits ... SP integral derivatives will be done elsewhere.
 Leave Link  702 at Mon Feb 22 21:13:05 2021, MaxMem=   104857600 cpu:               0.5 elap:               0.0
 (Enter /sw/arch/RedHatEnterpriseServer7/EB_production/2019/software/Gaussian/g16.c01/l703.exe)
 Integral derivatives from FoFJK, PRISM(SPDF).
 Compute integral first derivatives, UseDBF=F ICtDFT=           0.
 Calling FoFJK, ICntrl=      2527 FMM=F ISym2X=0 I1Cent= 0 IOpClX= 0 NMat=1 NMatS=1 NMatT=0.
 FoFJK:  IHMeth= 1 ICntrl=    2527 DoSepK=F KAlg= 0 I1Cent=           0 FoldK=F
 IRaf=         0 NMat=       1 IRICut=       1 DoRegI=T DoRafI=F ISym2E= 0 IDoP0=0 IntGTp=1.
 FoFCou: FMM=F IPFlag=           0 FMFlag=      100000 FMFlg1=         800
         NFxFlg=           0 DoJE=F BraDBF=F KetDBF=F FulRan=T
         wScrn=  0.000000 ICntrl=      2527 IOpCl=  0 I1Cent=           0 NGrid=           0
         NMat0=    1 NMatS0=      1 NMatT0=    0 NMatD0=    1 NMtDS0=    0 NMtDT0=    0
 Symmetry not used in FoFCou.
 Leave Link  703 at Mon Feb 22 21:13:06 2021, MaxMem=   104857600 cpu:              22.6 elap:               0.8
 (Enter /sw/arch/RedHatEnterpriseServer7/EB_production/2019/software/Gaussian/g16.c01/l716.exe)
 Dipole        =-5.54074058D-04-2.33123426D+00 5.43908324D-03
 ***** Axes restored to original set *****
 -------------------------------------------------------------------
 Center     Atomic                   Forces (Hartrees/Bohr)
 Number     Number              X              Y              Z
 -------------------------------------------------------------------
      1        6          -0.000634210   -0.002398081   -0.001461640
      2        7           0.002217894    0.001448627    0.000315187
      3        6          -0.010989234   -0.004479138   -0.000729933
      4        8           0.005566167    0.002363009    0.000399902
      5        7           0.002816320    0.000436598   -0.000126484
      6        6          -0.002529608    0.001541171    0.001276753
      7        1          -0.000305987    0.000699468    0.000230212
      8        1           0.000686969   -0.000040235   -0.000129955
      9        1          -0.000241540    0.000430134    0.000696369
     10        1           0.001576690   -0.000313743   -0.000385068
     11        1           0.000876765    0.001289562    0.000532469
     12        1           0.000249984   -0.000621933   -0.000631636
     13        1           0.000454577    0.000378231    0.000255423
     14        1           0.000255213   -0.000733669   -0.000241598
 -------------------------------------------------------------------
 Cartesian Forces:  Max     0.010989234 RMS     0.002295238
 Leave Link  716 at Mon Feb 22 21:13:06 2021, MaxMem=   104857600 cpu:               0.6 elap:               0.0
 (Enter /sw/arch/RedHatEnterpriseServer7/EB_production/2019/software/Gaussian/g16.c01/l103.exe)

 GradGradGradGradGradGradGradGradGradGradGradGradGradGradGradGradGradGrad
 Berny optimization.
 Using GEDIIS/GDIIS optimizer.
 FormGI is forming the generalized inverse of G from B-inverse, IUseBI=4.
 Internal  Forces:  Max     0.006059829 RMS     0.001311024
 Search for a local minimum.
 Step number   2 out of a maximum of   64
 All quantities printed in internal units (Hartrees-Bohrs-Radians)
 RMS Force = .13110D-02 SwitMx=.10000D-02 MixMth= 1
 Mixed Optimization -- RFO/linear search
 Update second derivatives using D2CorX and points    1    2
 DE= -6.77D-03 DEPred=-6.83D-03 R= 9.92D-01
 TightC=F SS=  1.41D+00  RLast= 1.84D-01 DXNew= 5.0454D-01 5.5053D-01
 Trust test= 9.92D-01 RLast= 1.84D-01 DXMaxT set to 5.05D-01
 ITU=  1  0
 Use linear search instead of GDIIS.
     Eigenvalues ---    0.01378   0.01388   0.01735   0.01739   0.02254
     Eigenvalues ---    0.02256   0.02258   0.07420   0.07437   0.07836
     Eigenvalues ---    0.07842   0.15879   0.16000   0.16000   0.16000
     Eigenvalues ---    0.16000   0.16000   0.16000   0.16596   0.21127
     Eigenvalues ---    0.22000   0.25000   0.25077   0.34646   0.34681
     Eigenvalues ---    0.34732   0.34772   0.34862   0.34900   0.41418
     Eigenvalues ---    0.41962   0.51408   0.53144   0.53489   0.54669
     Eigenvalues ---    0.82250
 RFO step:  Lambda=-2.46320689D-04 EMin= 1.37846653D-02
[...]
     5  N    3.680177   2.333118   1.380668   2.301691   0.000000
     6  C    4.917776   3.680493   2.460341   2.794871   1.459159
     7  H    1.097673   2.099529   2.697607   2.619586   4.036138
     8  H    1.097331   2.087736   3.348315   3.838188   4.420466
     9  H    1.104118   2.142266   2.873476   3.027214   4.062319
    10  H    2.117563   1.017098   2.062768   3.177789   2.489571
    11  H    3.944792   2.489796   2.063029   3.178124   1.017050
    12  H    5.243352   4.063187   2.873686   3.026692   2.142101
    13  H    5.749725   4.420377   3.348261   3.838392   2.087655
    14  H    5.071295   4.036541   2.698024   2.620549   2.099601
                    6          7          8          9         10
     6  C    0.000000
     7  H    5.071502   0.000000
     8  H    5.750137   1.783579   0.000000
     9  H    5.242436   1.784054   1.791465   0.000000
    10  H    3.944662   2.970026   2.352017   2.665743   0.000000
    11  H    2.117921   4.437039   4.467208   4.438188   2.268719
    12  H    1.104110   5.203445   6.046254   5.723674   4.439473
    13  H    1.097323   6.024251   6.507143   6.044837   4.466503
    14  H    1.097698   5.159867   6.024345   5.202266   4.436182
                   11         12         13         14
    11  H    0.000000
    12  H    2.667725   0.000000
    13  H    2.351343   1.791418   0.000000
    14  H    2.969734   1.784039   1.783603   0.000000
 Stoichiometry    C3H8N2O
 Framework group  C1[X(C3H8N2O)]
 Deg. of freedom    36
 Full point group                 C1      NOp   1
 Largest Abelian subgroup         C1      NOp   1
 Largest concise Abelian subgroup C1      NOp   1
                         Standard orientation:                         
 ---------------------------------------------------------------------
 Center     Atomic      Atomic             Coordinates (Angstroms)
 Number     Number       Type             X           Y           Z
 ---------------------------------------------------------------------
      1          6           0        2.458711    0.006765   -0.025853
      2          7           0        1.161866   -0.649144    0.106017
      3          6           0        0.000017    0.089648    0.000351
      4          8           0       -0.000000    1.335242    0.000340
      5          7           0       -1.161712   -0.648986   -0.104756
      6          6           0       -2.458806    0.006715    0.024666
      7          1           0        2.499162    0.879013    0.639304
      8          1           0        3.242212   -0.700679    0.273787
      9          1           0        2.659562    0.348323   -1.056423
     10          1           0        1.124655   -1.633140   -0.148649
     11          1           0       -1.124668   -1.633592    0.147376
     12          1           0       -2.660650    0.350024    1.054451
     13          1           0       -3.241806   -0.701546   -0.274323
     14          1           0       -2.499073    0.877808   -0.642054
 ---------------------------------------------------------------------
 Rotational constants (GHZ):           9.6966870           2.1317254           1.7920439
 Standard basis: TZVP (5D, 7F)
 There are   168 symmetry adapted cartesian basis functions of A   symmetry.
 There are   162 symmetry adapted basis functions of A   symmetry.
   162 basis functions,   274 primitive gaussians,   168 cartesian basis functions
    24 alpha electrons       24 beta electrons
       nuclear repulsion energy       246.3493274758 Hartrees.
 NAtoms=   14 NActive=   14 NUniq=   14 SFac= 1.00D+00 NAtFMM=   60 NAOKFM=F Big=F
 Integral buffers will be    131072 words long.
 Raffenetti 2 integral format.
 Two-electron integral symmetry is turned on.
 Warning! Using old PCM defaults because the COSMOthermo output has been requested.
 These settings can be overridden by following keywords.
 ------------------------------------------------------------------------------
 Polarizable Continuum Model (PCM)
 =================================
 Model                : C-PCM.
 Atomic radii         : Klamt.
 XCosmo               : -1.000 (infinite dielectric limit)
 Polarization charges : Electronic and nuclear charges.
 Charge compensation  : Type 3 (Electronic density weighted correction).
 Solution method      : On-the-fly selection.
 Cavity type          : VdW (van der Waals Surface) (Alpha=1.000).
 Cavity algorithm     : GePol (No added spheres)
                        Default sphere list used, NSphG=   14.
                        Tesserae with average area of 0.200 Ang**2.
                        Smoothing algorithm: None.
                        Polarization charges: point-like.
                        Self-potential: constant (ISelfS= 1).
                        Self-field    : global E.n sum rule (ISelfD= 3).
 Solvent              : Water, Eps=  78.355300 Eps(inf)=   1.777849
 ------------------------------------------------------------------------------
 Spheres list:
 ISph  on   Nord     Re0    Alpha      Xe            Ye            Ze
    1   C      1    2.0000  1.000      2.458711      0.006765     -0.025853
    2   N      2    1.8300  1.000      1.161866     -0.649144      0.106017
    3   C      3    2.0000  1.000      0.000017      0.089648      0.000351
    4   O      4    1.7200  1.000     -0.000000      1.335242      0.000340
    5   N      5    1.8300  1.000     -1.161712     -0.648986     -0.104756
    6   C      6    2.0000  1.000     -2.458806      0.006715      0.024666
    7   H      7    1.3000  1.000      2.499162      0.879013      0.639304
    8   H      8    1.3000  1.000      3.242212     -0.700679      0.273787
    9   H      9    1.3000  1.000      2.659562      0.348323     -1.056423
   10   H     10    1.3000  1.000      1.124655     -1.633140     -0.148649
   11   H     11    1.3000  1.000     -1.124668     -1.633592      0.147376
   12   H     12    1.3000  1.000     -2.660650      0.350024      1.054451
   13   H     13    1.3000  1.000     -3.241806     -0.701546     -0.274323
   14   H     14    1.3000  1.000     -2.499073      0.877808     -0.642054
 ------------------------------------------------------------------------------
 One-electron integrals computed using PRISM.
 PrsmSu:  requested number of processors reduced to:  29 ShMem   1 Linda.
 NBasis=   162 RedAO= T EigKep=  1.02D-03  NBF=   162
 NBsUse=   162 1.00D-06 EigRej= -1.00D+00 NBFU=   162
 Initial guess from the checkpoint file:  "MGJKQDOBUOMPEZ-UHFFFAOYSA-N.chk"
 B after Tr=    -0.000000    0.000000    0.000000
         Rot=    1.000000   -0.000000   -0.000000   -0.000000 Ang=   0.00 deg.
 Requested convergence on RMS density matrix=1.00D-08 within 128 cycles.
 Requested convergence on MAX density matrix=1.00D-06.
 Requested convergence on             energy=1.00D-06.
 No special actions if energy rises.
 Inv3:  Mode=1 IEnd=     2690427.
 Iteration    1 A*A^-1 deviation from unit magnitude is 3.55D-15 for    371.
 Iteration    1 A*A^-1 deviation from orthogonality  is 1.73D-15 for    635    212.
 Iteration    1 A^-1*A deviation from unit magnitude is 3.55D-15 for    371.
 Iteration    1 A^-1*A deviation from orthogonality  is 2.28D-15 for    411    185.
 Error on nuclear    polarization charges =  0.01458
 Error on electronic polarization charges = -0.04110
 SCF Done:  E(RB-P86) =  -304.014493949     A.U. after   10 cycles
            NFock= 10  Conv=0.42D-08     -V/T= 2.0047
 --------------------------------------------------------------------
 Variational C-PCM results
 =========================
 <psi(f)|   H    |psi(f)>                     (a.u.) =    -303.988287
 <psi(f)|H+V(f)/2|psi(f)>                     (a.u.) =    -304.014494
 Total free energy in solution:
 - with all non electrostatic terms           (a.u.) =    -304.005579
 --------------------------------------------------------------------
 (Polarized solute)-Solvent               (kcal/mol) =     -16.45
 --------------------------------------------------------------------
 Cavitation energy                        (kcal/mol) =      17.50
 Dispersion energy                        (kcal/mol) =     -13.06
 Repulsion energy                         (kcal/mol) =       1.16
 Total non electrostatic                  (kcal/mol) =       5.59
 --------------------------------------------------------------------
 Partition over spheres:
 Sphere  on Atom  Surface  Charge   GEl     GCav    GDR
    1      C1      19.56   0.000   -0.30    2.30   -1.35
    2      N2       7.39   0.032   -0.33    0.90   -0.55
    3      C3      10.03   0.024   -0.30    1.18   -0.71
    4      O4      18.15   0.316   -8.77    2.26   -1.40
    5      N5       7.38   0.031   -0.33    0.90   -0.55
    6      C6      19.56   0.001   -0.32    2.30   -1.35
    7      H7       6.36  -0.028    0.06    0.90   -0.63
    8      H8       6.50  -0.037   -0.40    0.92   -0.76
    9      H9       6.58  -0.027   -0.07    0.93   -0.77
   10      H10      7.75  -0.110   -2.63    1.09   -0.83
   11      H11      7.75  -0.110   -2.63    1.09   -0.83
   12      H12      6.58  -0.027   -0.07    0.93   -0.77
   13      H13      6.50  -0.038   -0.41    0.92   -0.76
   14      H14      6.36  -0.028    0.06    0.90   -0.63
 --------------------------------------------------------------------
 - cavitation energy not included in the total energy.
 - dispersion energy not included in the total energy.
 - repulsion  energy not included in the total energy.
 After PCM corrections, the energy is  -304.014493949     a.u.
 --------------------------------------------------------------------
 Writing COSMO formatted file "MGJKQDOBUOMPEZ-UHFFFAOYSA-N.cosmo"
 Recomputed dielectric energy= -0.026345 old= -0.026207 diff=-1.38D-04

 **********************************************************************

            Population analysis using the SCF Density.

 **********************************************************************

 Orbital symmetries:
       Occupied  (A) (A) (A) (A) (A) (A) (A) (A) (A) (A) (A) (A)
                 (A) (A) (A) (A) (A) (A) (A) (A) (A) (A) (A) (A)
       Virtual   (A) (A) (A) (A) (A) (A) (A) (A) (A) (A) (A) (A)
                 (A) (A) (A) (A) (A) (A) (A) (A) (A) (A) (A) (A)
                 (A) (A) (A) (A) (A) (A) (A) (A) (A) (A) (A) (A)
                 (A) (A) (A) (A) (A) (A) (A) (A) (A) (A) (A) (A)
                 (A) (A) (A) (A) (A) (A) (A) (A) (A) (A) (A) (A)
                 (A) (A) (A) (A) (A) (A) (A) (A) (A) (A) (A) (A)
                 (A) (A) (A) (A) (A) (A) (A) (A) (A) (A) (A) (A)
                 (A) (A) (A) (A) (A) (A) (A) (A) (A) (A) (A) (A)
                 (A) (A) (A) (A) (A) (A) (A) (A) (A) (A) (A) (A)
                 (A) (A) (A) (A) (A) (A) (A) (A) (A) (A) (A) (A)
                 (A) (A) (A) (A) (A) (A) (A) (A) (A) (A) (A) (A)
                 (A) (A) (A) (A) (A) (A)
 The electronic state is 1-A.
 Alpha  occ. eigenvalues --  -18.73407 -14.01845 -14.01841 -10.01086  -9.92070
 Alpha  occ. eigenvalues --   -9.92065  -0.95852  -0.84757  -0.82342  -0.65590
 Alpha  occ. eigenvalues --   -0.60224  -0.52775  -0.50810  -0.44279  -0.41284
 Alpha  occ. eigenvalues --   -0.38737  -0.38672  -0.38043  -0.34337  -0.34219
 Alpha  occ. eigenvalues --   -0.33635  -0.23922  -0.22563  -0.20786
 Alpha virt. eigenvalues --    0.00526   0.02276   0.05178   0.05295   0.08181
 Alpha virt. eigenvalues --    0.08456   0.10992   0.11279   0.11596   0.12251
 Alpha virt. eigenvalues --    0.14270   0.15408   0.18894   0.18988   0.20643
 Alpha virt. eigenvalues --    0.22804   0.23243   0.24241   0.25852   0.28980
 Alpha virt. eigenvalues --    0.29580   0.32398   0.34151   0.35212   0.35872
 Alpha virt. eigenvalues --    0.38759   0.39299   0.39971   0.42602   0.44103
 Alpha virt. eigenvalues --    0.44265   0.44746   0.45789   0.47036   0.47370
 Alpha virt. eigenvalues --    0.50921   0.51950   0.52768   0.53617   0.55035
 Alpha virt. eigenvalues --    0.62021   0.63489   0.64719   0.67870   0.71922
 Alpha virt. eigenvalues --    0.84545   1.09566   1.11898   1.16958   1.18100
 Alpha virt. eigenvalues --    1.21870   1.22613   1.23218   1.26101   1.28553
 Alpha virt. eigenvalues --    1.30317   1.30426   1.35521   1.39458   1.42364
 Alpha virt. eigenvalues --    1.43548   1.46569   1.46654   1.47418   1.49617
 Alpha virt. eigenvalues --    1.50952   1.55891   1.56197   1.59824   1.66299
 Alpha virt. eigenvalues --    1.69643   1.70449   1.71853   1.72046   1.72077
 Alpha virt. eigenvalues --    1.73850   1.76460   1.79209   1.86501   1.89204
 Alpha virt. eigenvalues --    1.90726   1.98672   2.02108   2.09907   2.12304
 Alpha virt. eigenvalues --    2.12714   2.13832   2.16110   2.21234   2.21539
 Alpha virt. eigenvalues --    2.24471   2.26088   2.26973   2.29228   2.31868
 Alpha virt. eigenvalues --    2.36022   2.39131   2.42271   2.44813   2.44930
 Alpha virt. eigenvalues --    2.51367   2.51425   2.52156   2.53698   2.57455
 Alpha virt. eigenvalues --    2.59462   2.61754   2.64225   2.65472   2.66441
 Alpha virt. eigenvalues --    2.68889   2.72218   2.74944   2.77741   2.81261
 Alpha virt. eigenvalues --    2.97513   2.99033   3.04315   3.09238   3.15286
 Alpha virt. eigenvalues --    3.17497   3.20865   3.23095   3.26897   3.31140
 Alpha virt. eigenvalues --    3.31649   3.36419   3.54301   3.63532   3.65872
 Alpha virt. eigenvalues --    3.80922   4.10966  21.65991  21.71013  21.74205
 Alpha virt. eigenvalues --   31.47410  31.49914  43.15477
          Condensed to atoms (all electrons):
               1          2          3          4          5          6
     1  C    4.963421   0.254637  -0.061763   0.000604   0.005590  -0.001843
     2  N    0.254637   6.721973   0.365687  -0.124059  -0.160253   0.005637
     3  C   -0.061763   0.365687   4.593031   0.608750   0.365827  -0.061740
     4  O    0.000604  -0.124059   0.608750   8.094148  -0.124174   0.000743
     5  N    0.005590  -0.160253   0.365827  -0.124174   6.722239   0.254562
     6  C   -0.001843   0.005637  -0.061740   0.000743   0.254562   4.963110
     7  H    0.395335  -0.033467  -0.017139   0.014620   0.001419   0.000272
     8  H    0.380260  -0.031220   0.013912   0.002281   0.000678   0.000029
     9  H    0.419510  -0.059517  -0.006214   0.001341   0.000335  -0.000160
    10  H   -0.034472   0.350538  -0.028206   0.005003   0.007969   0.001147
    11  H    0.001148   0.007937  -0.028136   0.005004   0.350497  -0.034382
    12  H   -0.000161   0.000324  -0.006264   0.001343  -0.059512   0.419587
    13  H    0.000029   0.000681   0.013938   0.002286  -0.031173   0.380201
    14  H    0.000274   0.001410  -0.017126   0.014556  -0.033553   0.395446
               7          8          9         10         11         12
     1  C    0.395335   0.380260   0.419510  -0.034472   0.001148  -0.000161
     2  N   -0.033467  -0.031220  -0.059517   0.350538   0.007937   0.000324
     3  C   -0.017139   0.013912  -0.006214  -0.028206  -0.028136  -0.006264
     4  O    0.014620   0.002281   0.001341   0.005003   0.005004   0.001343
     5  N    0.001419   0.000678   0.000335   0.007969   0.350497  -0.059512
     6  C    0.000272   0.000029  -0.000160   0.001147  -0.034382   0.419587
     7  H    0.543668  -0.019238  -0.041887   0.006806  -0.000215  -0.000030
     8  H   -0.019238   0.528170  -0.029601  -0.004846  -0.000176  -0.000005
     9  H   -0.041887  -0.029601   0.568107  -0.000940   0.000047   0.000035
    10  H    0.006806  -0.004846  -0.000940   0.417226  -0.002513   0.000047
    11  H   -0.000215  -0.000176   0.000047  -0.002513   0.416904  -0.000910
    12  H   -0.000030  -0.000005   0.000035   0.000047  -0.000910   0.567992
    13  H   -0.000003  -0.000003  -0.000005  -0.000177  -0.004865  -0.029542
    14  H   -0.000050  -0.000003  -0.000031  -0.000215   0.006787  -0.041980
              13         14
     1  C    0.000029   0.000274
     2  N    0.000681   0.001410
     3  C    0.013938  -0.017126
     4  O    0.002286   0.014556
     5  N   -0.031173  -0.033553
     6  C    0.380201   0.395446
     7  H   -0.000003  -0.000050
     8  H   -0.000003  -0.000003
     9  H   -0.000005  -0.000031
    10  H   -0.000177  -0.000215
    11  H   -0.004865   0.006787
    12  H   -0.029542  -0.041980
    13  H    0.528094  -0.019248
    14  H   -0.019248   0.543816
 Mulliken charges:
               1
     1  C   -0.322569
     2  N   -0.300307
     3  C    0.265443
     4  O   -0.502446
     5  N   -0.300449
     6  C   -0.322609
     7  H    0.149908
     8  H    0.159761
     9  H    0.148981
    10  H    0.282633
    11  H    0.282875
    12  H    0.149077
    13  H    0.159787
    14  H    0.149915
 Sum of Mulliken charges =  -0.00000
 Mulliken charges with hydrogens summed into heavy atoms:
               1
     1  C    0.136082
     2  N   -0.017674
     3  C    0.265443
     4  O   -0.502446
     5  N   -0.017575
     6  C    0.136170
 Electronic spatial extent (au):  <R**2>=            696.3098
 Charge=             -0.0000 electrons
 Dipole moment (field-independent basis, Debye):
    X=             -0.0034    Y=             -5.9110    Z=             -0.0081  Tot=              5.9110
 Quadrupole moment (field-independent basis, Debye-Ang):
   XX=            -27.6692   YY=            -37.4565   ZZ=            -38.7577
   XY=              0.0068   XZ=             -1.1639   YZ=              0.0071
 Traceless Quadrupole moment (field-independent basis, Debye-Ang):
   XX=              6.9586   YY=             -2.8287   ZZ=             -4.1299
   XY=              0.0068   XZ=             -1.1639   YZ=              0.0071
 Octapole moment (field-independent basis, Debye-Ang**2):
  XXX=             -0.0244  YYY=            -23.3296  ZZZ=             -0.0100  XYY=             -0.0090
  XXY=             -6.3514  XXZ=             -0.0132  XZZ=             -0.0047  YZZ=              1.3307
  YYZ=             -0.0126  XYZ=              1.7728
 Hexadecapole moment (field-independent basis, Debye-Ang**3):
 XXXX=           -643.1670 YYYY=           -148.6409 ZZZZ=            -54.3751 XXXY=              0.0282
 XXXZ=              3.6759 YYYX=              0.0314 YYYZ=              0.0178 ZZZX=             -3.8875
 ZZZY=              0.0077 XXYY=           -133.1699 XXZZ=           -128.6944 YYZZ=            -36.8934
 XXYZ=              0.0171 YYXZ=             -0.0265 ZZXY=             -0.0022
 N-N= 2.463493274758D+02 E-N=-1.203157921480D+03  KE= 3.025819005406D+02
 Unable to Open any file for archive entry.
 1\1\GINC-TCN1721\SP\RBP86\TZVP\C3H8N2O1\ELENAA\22-Feb-2021\0\\# BP86/T
 ZVP SCRF=COSMORS geom=CHECKPOINT guess=CHECKPOINT\\COSMO-file for #MGJ
 KQDOBUOMPEZ-UHFFFAOYSA-N\\0,1\C,0,0.5902735175,-2.8861766449,-1.555329
 916\N,0,0.7082979078,-1.5760575527,-0.9236077472\C,0,-0.3731738514,-1.
 0276534533,-0.2628933862\O,0,-1.5200571216,-1.5056448186,-0.350575156\
 N,0,-0.0943500437,0.087914809,0.50131093\C,0,-1.1837050609,0.893618403
 3,1.0428755008\H,0,-0.2996399487,-2.9060803703,-2.1976255554\H,0,1.477
 4348097,-3.0570062727,-2.1781445317\H,0,0.5049143635,-3.7061719929,-0.
 8208922647\H,0,1.6397378597,-1.302401973,-0.6202602191\H,0,0.787122906
 9,0.5685221816,0.338789675\H,0,-1.7291727373,1.4511452725,0.2614106698
 \H,0,-0.7672772817,1.6076832388,1.7645517681\H,0,-1.8986653198,0.24355
 91732,1.5636402327\\Version=ES64L-G16RevC.01\State=1-A\HF=-304.0144939
 \RMSD=4.229e-09\Dipole=2.1412549,0.8918114,0.167138\Quadrupole=-1.0938
 56,2.5624891,-1.4686331,-2.1799725,-1.3303781,3.0943041\PG=C01 [X(C3H8
 N2O1)]\\@
 The archive entry for this job was punched.


 IF YOU PERCEIVE THAT THERE ARE FOUR POSSIBLE WAYS IN
 WHICH A PROCEDURE CAN GO WRONG AND CIRCUMVENT THESE, 
 THEN A FIFTH WAY WILL DEVELOP.

                              -- MURPHY'S TWELFTH LAW
 Job cpu time:       0 days  0 hours  2 minutes 50.3 seconds.
 Elapsed time:       0 days  0 hours  0 minutes  6.2 seconds.
 File lengths (MBytes):  RWF=     28 Int=      0 D2E=      0 Chk=      6 Scr=      1
 Normal termination of Gaussian 16 at Mon Feb 22 21:16:10 2021.
