 Entering Gaussian System, Link 0=g16
 Input=MSIGGUSMCUUDGY-UHFFFAOYSA-M.gjf
 Output=MSIGGUSMCUUDGY-UHFFFAOYSA-M.log
 Initial command:
 /sw/arch/RedHatEnterpriseServer7/EB_production/2020/software/Gaussian/g16.c01/l1.exe "/scratch-local/elenaa.10684696/Gau-5194.inp" -scrdir="/scratch-local/elenaa.10684696/"
 Entering Link 1 = /sw/arch/RedHatEnterpriseServer7/EB_production/2020/software/Gaussian/g16.c01/l1.exe PID=      5195.
  
 Copyright (c) 1988-2019, Gaussian, Inc.  All Rights Reserved.
  
 This is part of the Gaussian(R) 16 program.  It is based on
 the Gaussian(R) 09 system (copyright 2009, Gaussian, Inc.),
 the Gaussian(R) 03 system (copyright 2003, Gaussian, Inc.),
 the Gaussian(R) 98 system (copyright 1998, Gaussian, Inc.),
 the Gaussian(R) 94 system (copyright 1995, Gaussian, Inc.),
 the Gaussian 92(TM) system (copyright 1992, Gaussian, Inc.),
 the Gaussian 90(TM) system (copyright 1990, Gaussian, Inc.),
 the Gaussian 88(TM) system (copyright 1988, Gaussian, Inc.),
 the Gaussian 86(TM) system (copyright 1986, Carnegie Mellon
 University), and the Gaussian 82(TM) system (copyright 1983,
 Carnegie Mellon University). Gaussian is a federally registered
 trademark of Gaussian, Inc.
  
 This software contains proprietary and confidential information,
 including trade secrets, belonging to Gaussian, Inc.
  
 This software is provided under written license and may be
 used, copied, transmitted, or stored only in accord with that
 written license.
  
 The following legend is applicable only to US Government
 contracts under FAR:
  
                    RESTRICTED RIGHTS LEGEND
  
 Use, reproduction and disclosure by the US Government is
 subject to restrictions as set forth in subparagraphs (a)
 and (c) of the Commercial Computer Software - Restricted
 Rights clause in FAR 52.227-19.
  
 Gaussian, Inc.
 340 Quinnipiac St., Bldg. 40, Wallingford CT 06492
  
  
 ---------------------------------------------------------------
 Warning -- This program may not be used in any manner that
 competes with the business of Gaussian, Inc. or will provide
 assistance to any competitor of Gaussian, Inc.  The licensee
 of this program is prohibited from giving any competitor of
 Gaussian, Inc. access to this program.  By using this program,
 the user acknowledges that Gaussian, Inc. is engaged in the
 business of creating and licensing software in the field of
 computational chemistry and represents and warrants to the
 licensee that it is not a competitor of Gaussian, Inc. and that
 it will not use this program in any manner prohibited above.
 ---------------------------------------------------------------
  

 Cite this work as:
 Gaussian 16, Revision C.01,
 M. J. Frisch, G. W. Trucks, H. B. Schlegel, G. E. Scuseria, 
 M. A. Robb, J. R. Cheeseman, G. Scalmani, V. Barone, 
 G. A. Petersson, H. Nakatsuji, X. Li, M. Caricato, A. V. Marenich, 
 J. Bloino, B. G. Janesko, R. Gomperts, B. Mennucci, H. P. Hratchian, 
 J. V. Ortiz, A. F. Izmaylov, J. L. Sonnenberg, D. Williams-Young, 
 F. Ding, F. Lipparini, F. Egidi, J. Goings, B. Peng, A. Petrone, 
 T. Henderson, D. Ranasinghe, V. G. Zakrzewski, J. Gao, N. Rega, 
 G. Zheng, W. Liang, M. Hada, M. Ehara, K. Toyota, R. Fukuda, 
 J. Hasegawa, M. Ishida, T. Nakajima, Y. Honda, O. Kitao, H. Nakai, 
 T. Vreven, K. Throssell, J. A. Montgomery, Jr., J. E. Peralta, 
 F. Ogliaro, M. J. Bearpark, J. J. Heyd, E. N. Brothers, K. N. Kudin, 
 V. N. Staroverov, T. A. Keith, R. Kobayashi, J. Normand, 
 K. Raghavachari, A. P. Rendell, J. C. Burant, S. S. Iyengar, 
 J. Tomasi, M. Cossi, J. M. Millam, M. Klene, C. Adamo, R. Cammi, 
 J. W. Ochterski, R. L. Martin, K. Morokuma, O. Farkas, 
 J. B. Foresman, and D. J. Fox, Gaussian, Inc., Wallingford CT, 2019.
 
 ******************************************
 Gaussian 16:  ES64L-G16RevC.01  3-Jul-2019
                21-Aug-2021 
 ******************************************
 %chk=MSIGGUSMCUUDGY-UHFFFAOYSA-M.chk
 %NProcShared=24
 Will use up to   24 processors via shared memory.
 -------------------------------------------------------------
 #P BP86/TZVP EmpiricalDispersion=GD3 SCRF=(Solvent=Water) Opt
 -------------------------------------------------------------
 1/18=20,19=15,26=3,38=1/1,3;
 2/9=110,12=2,17=6,18=5,40=1/2;
 3/5=19,7=101,11=2,25=1,30=1,70=2201,71=1,72=1,74=404,124=31/1,2,3;
 4//1;
 5/5=2,38=5,53=1/2;
 6/7=2,8=2,9=2,10=2,28=1/1;
 7//1,2,3,16;
 1/18=20,19=15,26=3/3(2);
 2/9=110/2;
 99//99;
 2/9=110/2;
 3/5=19,7=101,11=2,25=1,30=1,70=2205,71=1,72=1,74=404,124=31/1,2,3;
 4/5=5,16=3,69=1/1;
 5/5=2,38=5,53=1/2;
 7//1,2,3,16;
 1/18=20,19=15,26=3/3(-5);
 2/9=110/2;
 6/7=2,8=2,9=2,10=2,19=2,28=1/1;
 99/9=1/99;
 Leave Link    1 at Sat Aug 21 09:32:11 2021, MaxMem=           0 cpu:               1.7 elap:               0.1
 (Enter /sw/arch/RedHatEnterpriseServer7/EB_production/2020/software/Gaussian/g16.c01/l101.exe)
 -------------------------------------
 Particle #MSIGGUSMCUUDGY-UHFFFAOYSA-M
 -------------------------------------
 Symbolic Z-matrix:
 Charge =  0 Multiplicity = 1
 C                     0.61909  -2.9442    0.4798 
 O                    -0.38897  -2.42339   1.31867 
 C                    -0.99822  -1.29292   0.72189 
 C                    -0.36984  -0.00028   1.29015 
 N                    -0.9509    1.27414   0.76006 
 C                    -0.24748   2.39654   1.43074 
 C                    -0.70721   1.3825   -0.69826 
 C                    -2.39118   1.36382   1.09828 
 Cl                   -2.38979   4.43003  -0.55262 
 H                     1.3766   -2.17208   0.21994 
 H                     0.1766   -3.37831  -0.4437 
 H                     1.14188  -3.7605    1.01903 
 H                    -2.07257  -1.32779   0.99273 
 H                    -0.95315  -1.31357  -0.39091 
 H                    -0.47608  -0.03782   2.3992 
 H                     0.72498  -0.03187   1.08804 
 H                     0.84595   2.36831   1.22135 
 H                    -0.38631   2.35592   2.53495 
 H                    -0.63048   3.38197   1.08116 
 H                    -1.37845   0.71357  -1.27704 
 H                    -0.85846   2.42291  -1.05805 
 H                     0.34275   1.11222  -0.94999 
 H                    -2.57001   1.08554   2.16104 
 H                    -3.00296   0.68909   0.46228 
 H                    -2.77217   2.40049   0.97678 
 
 Add virtual bond connecting atoms H19        and Cl9        Dist= 4.95D+00.
 Add virtual bond connecting atoms H21        and Cl9        Dist= 4.87D+00.
 Add virtual bond connecting atoms H25        and Cl9        Dist= 4.86D+00.
 ITRead=  0  0  0  0  0  0  0  0  0  0  0  0  0  0  0  0  0  0  0  0
 ITRead=  0  0  0  0  0
 MicOpt= -1 -1 -1 -1 -1 -1 -1 -1 -1 -1 -1 -1 -1 -1 -1 -1 -1 -1 -1 -1
 MicOpt= -1 -1 -1 -1 -1
 NAtoms=     25 NQM=       25 NQMF=       0 NMMI=      0 NMMIF=      0
                NMic=       0 NMicF=      0.
                    Isotopes and Nuclear Properties:
 (Nuclear quadrupole moments (NQMom) in fm**2, nuclear magnetic moments (NMagM)
  in nuclear magnetons)

  Atom         1           2           3           4           5           6           7           8           9          10
 IAtWgt=          12          16          12          12          14          12          12          12          35           1
 AtmWgt=  12.0000000  15.9949146  12.0000000  12.0000000  14.0030740  12.0000000  12.0000000  12.0000000  34.9688527   1.0078250
 NucSpn=           0           0           0           0           2           0           0           0           3           1
 AtZEff=  -0.0000000  -0.0000000  -0.0000000  -0.0000000  -0.0000000  -0.0000000  -0.0000000  -0.0000000  -0.0000000  -0.0000000
 NQMom=    0.0000000   0.0000000   0.0000000   0.0000000   2.0440000   0.0000000   0.0000000   0.0000000  -8.1650000   0.0000000
 NMagM=    0.0000000   0.0000000   0.0000000   0.0000000   0.4037610   0.0000000   0.0000000   0.0000000   0.8218740   2.7928460
 AtZNuc=   6.0000000   8.0000000   6.0000000   6.0000000   7.0000000   6.0000000   6.0000000   6.0000000  17.0000000   1.0000000

  Atom        11          12          13          14          15          16          17          18          19          20
 IAtWgt=           1           1           1           1           1           1           1           1           1           1
 AtmWgt=   1.0078250   1.0078250   1.0078250   1.0078250   1.0078250   1.0078250   1.0078250   1.0078250   1.0078250   1.0078250
 NucSpn=           1           1           1           1           1           1           1           1           1           1
 AtZEff=  -0.0000000  -0.0000000  -0.0000000  -0.0000000  -0.0000000  -0.0000000  -0.0000000  -0.0000000  -0.0000000  -0.0000000
 NQMom=    0.0000000   0.0000000   0.0000000   0.0000000   0.0000000   0.0000000   0.0000000   0.0000000   0.0000000   0.0000000
 NMagM=    2.7928460   2.7928460   2.7928460   2.7928460   2.7928460   2.7928460   2.7928460   2.7928460   2.7928460   2.7928460
 AtZNuc=   1.0000000   1.0000000   1.0000000   1.0000000   1.0000000   1.0000000   1.0000000   1.0000000   1.0000000   1.0000000

  Atom        21          22          23          24          25
 IAtWgt=           1           1           1           1           1
 AtmWgt=   1.0078250   1.0078250   1.0078250   1.0078250   1.0078250
 NucSpn=           1           1           1           1           1
 AtZEff=  -0.0000000  -0.0000000  -0.0000000  -0.0000000  -0.0000000
 NQMom=    0.0000000   0.0000000   0.0000000   0.0000000   0.0000000
 NMagM=    2.7928460   2.7928460   2.7928460   2.7928460   2.7928460
 AtZNuc=   1.0000000   1.0000000   1.0000000   1.0000000   1.0000000
 Leave Link  101 at Sat Aug 21 09:32:11 2021, MaxMem=   104857600 cpu:               2.0 elap:               0.1
 (Enter /sw/arch/RedHatEnterpriseServer7/EB_production/2020/software/Gaussian/g16.c01/l103.exe)

 GradGradGradGradGradGradGradGradGradGradGradGradGradGradGradGradGradGrad
 Berny optimization.
 Initialization pass.
                           ----------------------------
                           !    Initial Parameters    !
                           ! (Angstroms and Degrees)  !
 --------------------------                            --------------------------
 ! Name  Definition              Value          Derivative Info.                !
 --------------------------------------------------------------------------------
 ! R1    R(1,2)                  1.4111         estimate D2E/DX2                !
 ! R2    R(1,10)                 1.1124         estimate D2E/DX2                !
 ! R3    R(1,11)                 1.1122         estimate D2E/DX2                !
 ! R4    R(1,12)                 1.1092         estimate D2E/DX2                !
 ! R5    R(2,3)                  1.4161         estimate D2E/DX2                !
 ! R6    R(3,4)                  1.5455         estimate D2E/DX2                !
 ! R7    R(3,13)                 1.1085         estimate D2E/DX2                !
 ! R8    R(3,14)                 1.1139         estimate D2E/DX2                !
 ! R9    R(4,5)                  1.4976         estimate D2E/DX2                !
 ! R10   R(4,15)                 1.1148         estimate D2E/DX2                !
 ! R11   R(4,16)                 1.1138         estimate D2E/DX2                !
 ! R12   R(5,6)                  1.4847         estimate D2E/DX2                !
 ! R13   R(5,7)                  1.4825         estimate D2E/DX2                !
 ! R14   R(5,8)                  1.4822         estimate D2E/DX2                !
 ! R15   R(6,17)                 1.1137         estimate D2E/DX2                !
 ! R16   R(6,18)                 1.1136         estimate D2E/DX2                !
 ! R17   R(6,19)                 1.1135         estimate D2E/DX2                !
 ! R18   R(7,20)                 1.1104         estimate D2E/DX2                !
 ! R19   R(7,21)                 1.1112         estimate D2E/DX2                !
 ! R20   R(7,22)                 1.113          estimate D2E/DX2                !
 ! R21   R(8,23)                 1.113          estimate D2E/DX2                !
 ! R22   R(8,24)                 1.1109         estimate D2E/DX2                !
 ! R23   R(8,25)                 1.1111         estimate D2E/DX2                !
 ! R24   R(9,19)                 2.6197         estimate D2E/DX2                !
 ! R25   R(9,21)                 2.5747         estimate D2E/DX2                !
 ! R26   R(9,25)                 2.5699         estimate D2E/DX2                !
 ! A1    A(2,1,10)             111.6634         estimate D2E/DX2                !
 ! A2    A(2,1,11)             110.6985         estimate D2E/DX2                !
 ! A3    A(2,1,12)             108.6209         estimate D2E/DX2                !
 ! A4    A(10,1,11)            110.3564         estimate D2E/DX2                !
 ! A5    A(10,1,12)            107.662          estimate D2E/DX2                !
 ! A6    A(11,1,12)            107.6923         estimate D2E/DX2                !
 ! A7    A(1,2,3)              110.5771         estimate D2E/DX2                !
 ! A8    A(2,3,4)              109.7427         estimate D2E/DX2                !
 ! A9    A(2,3,13)             106.7923         estimate D2E/DX2                !
 ! A10   A(2,3,14)             112.8802         estimate D2E/DX2                !
 ! A11   A(4,3,13)             109.3006         estimate D2E/DX2                !
 ! A12   A(4,3,14)             111.4914         estimate D2E/DX2                !
 ! A13   A(13,3,14)            106.4227         estimate D2E/DX2                !
 ! A14   A(3,4,5)              115.0771         estimate D2E/DX2                !
 ! A15   A(3,4,15)             107.3908         estimate D2E/DX2                !
 ! A16   A(3,4,16)             108.0124         estimate D2E/DX2                !
 ! A17   A(5,4,15)             110.1105         estimate D2E/DX2                !
 ! A18   A(5,4,16)             109.9557         estimate D2E/DX2                !
 ! A19   A(15,4,16)            105.8581         estimate D2E/DX2                !
 ! A20   A(4,5,6)              107.4338         estimate D2E/DX2                !
 ! A21   A(4,5,7)              110.2802         estimate D2E/DX2                !
 ! A22   A(4,5,8)              110.3494         estimate D2E/DX2                !
 ! A23   A(6,5,7)              108.1325         estimate D2E/DX2                !
 ! A24   A(6,5,8)              108.1532         estimate D2E/DX2                !
 ! A25   A(7,5,8)              112.3202         estimate D2E/DX2                !
 ! A26   A(5,6,17)             111.166          estimate D2E/DX2                !
 ! A27   A(5,6,18)             111.1778         estimate D2E/DX2                !
 ! A28   A(5,6,19)             111.3606         estimate D2E/DX2                !
 ! A29   A(17,6,18)            107.9326         estimate D2E/DX2                !
 ! A30   A(17,6,19)            107.524          estimate D2E/DX2                !
 ! A31   A(18,6,19)            107.4981         estimate D2E/DX2                !
 ! A32   A(5,7,20)             111.674          estimate D2E/DX2                !
 ! A33   A(5,7,21)             111.3807         estimate D2E/DX2                !
 ! A34   A(5,7,22)             111.0877         estimate D2E/DX2                !
 ! A35   A(20,7,21)            108.2394         estimate D2E/DX2                !
 ! A36   A(20,7,22)            107.8225         estimate D2E/DX2                !
 ! A37   A(21,7,22)            106.4114         estimate D2E/DX2                !
 ! A38   A(5,8,23)             111.0315         estimate D2E/DX2                !
 ! A39   A(5,8,24)             111.577          estimate D2E/DX2                !
 ! A40   A(5,8,25)             111.3883         estimate D2E/DX2                !
 ! A41   A(23,8,24)            107.8376         estimate D2E/DX2                !
 ! A42   A(23,8,25)            106.4147         estimate D2E/DX2                !
 ! A43   A(24,8,25)            108.3761         estimate D2E/DX2                !
 ! A44   A(19,9,21)             53.9226         estimate D2E/DX2                !
 ! A45   A(19,9,25)             54.043          estimate D2E/DX2                !
 ! A46   A(21,9,25)             65.7745         estimate D2E/DX2                !
 ! A47   A(6,19,9)             141.335          estimate D2E/DX2                !
 ! A48   A(7,21,9)             138.3563         estimate D2E/DX2                !
 ! A49   A(8,25,9)             138.6668         estimate D2E/DX2                !
 ! D1    D(10,1,2,3)            55.7804         estimate D2E/DX2                !
 ! D2    D(11,1,2,3)           -67.6005         estimate D2E/DX2                !
 ! D3    D(12,1,2,3)           174.3567         estimate D2E/DX2                !
 ! D4    D(1,2,3,4)            -97.7021         estimate D2E/DX2                !
 ! D5    D(1,2,3,13)           143.9313         estimate D2E/DX2                !
 ! D6    D(1,2,3,14)            27.3233         estimate D2E/DX2                !
 ! D7    D(2,3,4,5)           -178.6841         estimate D2E/DX2                !
 ! D8    D(2,3,4,15)           -55.7031         estimate D2E/DX2                !
 ! D9    D(2,3,4,16)            58.0592         estimate D2E/DX2                !
 ! D10   D(13,3,4,5)           -61.882          estimate D2E/DX2                !
 ! D11   D(13,3,4,15)           61.0991         estimate D2E/DX2                !
 ! D12   D(13,3,4,16)          174.8614         estimate D2E/DX2                !
 ! D13   D(14,3,4,5)            55.4942         estimate D2E/DX2                !
 ! D14   D(14,3,4,15)          178.4753         estimate D2E/DX2                !
 ! D15   D(14,3,4,16)          -67.7624         estimate D2E/DX2                !
 ! D16   D(3,4,5,6)            178.9834         estimate D2E/DX2                !
 ! D17   D(3,4,5,7)            -63.3842         estimate D2E/DX2                !
 ! D18   D(3,4,5,8)             61.2882         estimate D2E/DX2                !
 ! D19   D(15,4,5,6)            57.4658         estimate D2E/DX2                !
 ! D20   D(15,4,5,7)           175.0982         estimate D2E/DX2                !
 ! D21   D(15,4,5,8)           -60.2294         estimate D2E/DX2                !
 ! D22   D(16,4,5,6)           -58.7999         estimate D2E/DX2                !
 ! D23   D(16,4,5,7)            58.8325         estimate D2E/DX2                !
 ! D24   D(16,4,5,8)          -176.4951         estimate D2E/DX2                !
 ! D25   D(4,5,6,17)            60.0527         estimate D2E/DX2                !
 ! D26   D(4,5,6,18)           -60.2186         estimate D2E/DX2                !
 ! D27   D(4,5,6,19)           179.9295         estimate D2E/DX2                !
 ! D28   D(7,5,6,17)           -58.9677         estimate D2E/DX2                !
 ! D29   D(7,5,6,18)          -179.2391         estimate D2E/DX2                !
 ! D30   D(7,5,6,19)            60.909          estimate D2E/DX2                !
 ! D31   D(8,5,6,17)           179.1663         estimate D2E/DX2                !
 ! D32   D(8,5,6,18)            58.8949         estimate D2E/DX2                !
 ! D33   D(8,5,6,19)           -60.957          estimate D2E/DX2                !
 ! D34   D(4,5,7,20)            75.2713         estimate D2E/DX2                !
 ! D35   D(4,5,7,21)          -163.5783         estimate D2E/DX2                !
 ! D36   D(4,5,7,22)           -45.143          estimate D2E/DX2                !
 ! D37   D(6,5,7,20)          -167.5283         estimate D2E/DX2                !
 ! D38   D(6,5,7,21)           -46.3779         estimate D2E/DX2                !
 ! D39   D(6,5,7,22)            72.0574         estimate D2E/DX2                !
 ! D40   D(8,5,7,20)           -48.2642         estimate D2E/DX2                !
 ! D41   D(8,5,7,21)            72.8862         estimate D2E/DX2                !
 ! D42   D(8,5,7,22)          -168.6785         estimate D2E/DX2                !
 ! D43   D(4,5,8,23)            45.5178         estimate D2E/DX2                !
 ! D44   D(4,5,8,24)           -74.8114         estimate D2E/DX2                !
 ! D45   D(4,5,8,25)           163.9254         estimate D2E/DX2                !
 ! D46   D(6,5,8,23)           -71.7334         estimate D2E/DX2                !
 ! D47   D(6,5,8,24)           167.9375         estimate D2E/DX2                !
 ! D48   D(6,5,8,25)            46.6743         estimate D2E/DX2                !
 ! D49   D(7,5,8,23)           169.0146         estimate D2E/DX2                !
 ! D50   D(7,5,8,24)            48.6854         estimate D2E/DX2                !
 ! D51   D(7,5,8,25)           -72.5778         estimate D2E/DX2                !
 ! D52   D(5,6,19,9)             0.1525         estimate D2E/DX2                !
 ! D53   D(17,6,19,9)          122.1625         estimate D2E/DX2                !
 ! D54   D(18,6,19,9)         -121.855          estimate D2E/DX2                !
 ! D55   D(5,7,21,9)           -35.0867         estimate D2E/DX2                !
 ! D56   D(20,7,21,9)           88.0489         estimate D2E/DX2                !
 ! D57   D(22,7,21,9)         -156.2923         estimate D2E/DX2                !
 ! D58   D(5,8,25,9)            34.5587         estimate D2E/DX2                !
 ! D59   D(23,8,25,9)          155.7022         estimate D2E/DX2                !
 ! D60   D(24,8,25,9)          -88.5534         estimate D2E/DX2                !
 ! D61   D(21,9,19,6)          -42.3774         estimate D2E/DX2                !
 ! D62   D(25,9,19,6)           41.96           estimate D2E/DX2                !
 ! D63   D(19,9,21,7)           64.8958         estimate D2E/DX2                !
 ! D64   D(25,9,21,7)            2.8537         estimate D2E/DX2                !
 ! D65   D(19,9,25,8)          -64.4197         estimate D2E/DX2                !
 ! D66   D(21,9,25,8)           -2.5419         estimate D2E/DX2                !
 --------------------------------------------------------------------------------
 Trust Radius=3.00D-01 FncErr=1.00D-07 GrdErr=1.00D-06 EigMax=2.50D+02 EigMin=1.00D-04
 Number of steps in this run=    150 maximum allowed number of steps=    150.
 GradGradGradGradGradGradGradGradGradGradGradGradGradGradGradGradGradGrad

 Leave Link  103 at Sat Aug 21 09:32:12 2021, MaxMem=   104857600 cpu:               0.4 elap:               0.0
 (Enter /sw/arch/RedHatEnterpriseServer7/EB_production/2020/software/Gaussian/g16.c01/l202.exe)
                          Input orientation:                          
 ---------------------------------------------------------------------
 Center     Atomic      Atomic             Coordinates (Angstroms)
 Number     Number       Type             X           Y           Z
 ---------------------------------------------------------------------
      1          6           0        0.619091   -2.944198    0.479795
      2          8           0       -0.388965   -2.423388    1.318669
      3          6           0       -0.998224   -1.292922    0.721888
      4          6           0       -0.369842   -0.000283    1.290152
      5          7           0       -0.950899    1.274139    0.760060
      6          6           0       -0.247483    2.396540    1.430738
      7          6           0       -0.707205    1.382500   -0.698256
      8          6           0       -2.391184    1.363819    1.098285
      9         17           0       -2.389789    4.430031   -0.552624
     10          1           0        1.376602   -2.172079    0.219941
     11          1           0        0.176599   -3.378311   -0.443698
     12          1           0        1.141879   -3.760499    1.019032
     13          1           0       -2.072571   -1.327794    0.992725
     14          1           0       -0.953146   -1.313567   -0.390911
     15          1           0       -0.476075   -0.037821    2.399200
     16          1           0        0.724983   -0.031866    1.088043
     17          1           0        0.845949    2.368314    1.221345
     18          1           0       -0.386306    2.355922    2.534945
     19          1           0       -0.630481    3.381967    1.081164
     20          1           0       -1.378446    0.713568   -1.277036
     21          1           0       -0.858458    2.422911   -1.058047
     22          1           0        0.342754    1.112221   -0.949991
     23          1           0       -2.570014    1.085536    2.161042
     24          1           0       -3.002961    0.689085    0.462277
     25          1           0       -2.772166    2.400488    0.976781
 ---------------------------------------------------------------------
                    Distance matrix (angstroms):
                    1          2          3          4          5
     1  C    0.000000
     2  O    1.411074   0.000000
     3  C    2.324011   1.416085   0.000000
     4  C    3.209564   2.423348   1.545543   0.000000
     5  N    4.509743   3.781471   2.567781   1.497590   0.000000
     6  C    5.493517   4.823306   3.831215   2.404058   1.484718
     7  C    4.676236   4.319033   3.042924   2.445336   1.482503
     8  C    5.291814   4.289567   3.023290   2.446101   1.482181
     9  Cl   8.031096   7.380677   6.026029   5.206121   3.708531
    10  H    1.112436   2.094657   2.581602   2.985317   4.193496
    11  H    1.112247   2.082709   2.662264   3.836132   4.936150
    12  H    1.109248   2.054539   3.279828   4.061777   5.458422
    13  H    3.181337   2.034968   1.108508   2.179457   2.842945
    14  H    2.426729   2.114868   1.113903   2.211545   2.832130
    15  H    3.651100   2.620318   2.159003   1.114756   2.152551
    16  H    2.977055   2.648291   2.166512   1.113772   2.149838
    17  H    5.368812   4.949232   4.129780   2.663294   2.153756
    18  H    5.772845   4.931647   4.120156   2.664861   2.153889
    19  H    6.476375   5.815229   4.703074   3.398709   2.156088
    20  H    4.522816   4.190137   2.857668   2.849091   2.155643
    21  H    5.775289   5.418101   4.122514   3.409495   2.152611
    22  H    4.309894   4.264125   3.221508   2.600711   2.150356
    23  H    5.407008   4.216529   3.193548   2.603499   2.149385
    24  H    5.130333   4.153778   2.831028   2.844982   2.154512
    25  H    6.349275   5.391318   4.105255   3.410728   2.152358
                    6          7          8          9         10
     6  C    0.000000
     7  C    2.402548   0.000000
     8  C    2.402601   2.462457   0.000000
     9  Cl   3.557849   3.484214   3.482407   0.000000
    10  H    4.997596   4.221418   5.241209   7.640054   0.000000
    11  H    6.086235   4.848838   5.608834   8.220001   1.826313
    12  H    6.325263   5.728755   6.224745   9.056907   1.793522
    13  H    4.170547   3.474095   2.712460   5.970032   3.634117
    14  H    4.193001   2.724651   3.384384   5.922754   2.556933
    15  H    2.629883   3.415401   2.706403   5.686587   3.568843
    16  H    2.638235   2.691181   3.414460   5.683495   2.399733
    17  H    1.113659   2.658756   3.391634   4.227014   4.679698
    18  H    1.113640   3.391772   2.658533   4.224802   5.382368
    19  H    1.113533   2.677702   2.678300   2.619707   5.968041
    20  H    3.382826   1.110415   2.662821   3.919144   4.261243
    21  H    2.562818   1.111207   2.849683   2.574676   5.267132
    22  H    2.768705   1.113030   3.425369   4.316545   3.636511
    23  H    2.765181   3.425468   1.113047   4.310697   5.473181
    24  H    3.383191   2.664237   1.110875   3.924370   5.236942
    25  H    2.565174   2.847124   1.111122   2.569890   6.220406
                   11         12         13         14         15
    11  H    0.000000
    12  H    1.793715   0.000000
    13  H    3.365516   4.031307   0.000000
    14  H    2.354204   3.516326   1.779821   0.000000
    15  H    4.434741   4.287303   2.488172   3.104810   0.000000
    16  H    3.720974   3.752502   3.084611   2.578018   1.778119
    17  H    6.020307   6.139288   4.715002   4.403676   2.987403
    18  H    6.486186   6.484130   4.334939   4.727271   2.399269
    19  H    6.976958   7.359344   4.926387   4.931446   3.668243
    20  H    4.456017   5.625055   3.130620   2.252859   3.859219
    21  H    5.924774   6.822768   4.443819   3.796749   4.260748
    22  H    4.522037   5.315924   3.944821   2.806488   3.634578
    23  H    5.852733   6.210185   2.727009   3.857774   2.388144
    24  H    5.241574   6.106429   2.283594   2.990031   3.265764
    25  H    6.641347   7.299267   3.793386   4.355872   3.638772
                   16         17         18         19         20
    16  H    0.000000
    17  H    2.406920   0.000000
    18  H    3.004999   1.801153   0.000000
    19  H    3.673089   1.796382   1.796070   0.000000
    20  H    3.251720   3.732027   4.267654   3.638806   0.000000
    21  H    3.624765   2.846684   3.624501   2.355416   1.800055
    22  H    2.368252   2.558452   3.771352   3.197581   1.796778
    23  H    3.641005   3.767938   2.553872   3.193982   3.657673
    24  H    3.848236   4.267330   3.731110   3.641881   2.380096
    25  H    4.261312   3.626514   2.849945   2.358180   3.141313
                   21         22         23         24         25
    21  H    0.000000
    22  H    1.781150   0.000000
    23  H    3.883366   4.261861   0.000000
    24  H    3.149036   3.656139   1.797337   0.000000
    25  H    2.793440   3.882629   1.781134   1.801910   0.000000
 Stoichiometry    C6H16ClNO
 Framework group  C1[X(C6H16ClNO)]
 Deg. of freedom    69
 Full point group                 C1      NOp   1
 Largest Abelian subgroup         C1      NOp   1
 Largest concise Abelian subgroup C1      NOp   1
                         Standard orientation:                         
 ---------------------------------------------------------------------
 Center     Atomic      Atomic             Coordinates (Angstroms)
 Number     Number       Type             X           Y           Z
 ---------------------------------------------------------------------
      1          6           0        4.097433   -0.599878   -0.482588
      2          8           0        3.429087    0.156262    0.503664
      3          6           0        2.084249   -0.268797    0.630294
      4          6           0        1.162481    0.664920   -0.186541
      5          7           0       -0.297547    0.340275   -0.111041
      6          6           0       -1.020013    1.347327   -0.928522
      7          6           0       -0.557046   -0.998381   -0.692828
      8          6           0       -0.778193    0.449336    1.286794
      9         17           0       -3.913061   -0.463654    0.075921
     10          1           0        3.570206   -0.555865   -1.461163
     11          1           0        4.216748   -1.655928   -0.154540
     12          1           0        5.111884   -0.175222   -0.627460
     13          1           0        1.823956   -0.191994    1.705068
     14          1           0        1.938831   -1.336090    0.346535
     15          1           0        1.342603    1.705792    0.169583
     16          1           0        1.502436    0.642948   -1.246935
     17          1           0       -0.684808    1.318861   -1.990154
     18          1           0       -0.847993    2.377528   -0.542140
     19          1           0       -2.118501    1.165159   -0.918758
     20          1           0       -0.234176   -1.812050   -0.009660
     21          1           0       -1.636062   -1.140321   -0.917235
     22          1           0       -0.015701   -1.127926   -1.656674
     23          1           0       -0.402912    1.380849    1.766712
     24          1           0       -0.440468   -0.410903    1.903214
     25          1           0       -1.887354    0.498094    1.331265
 ---------------------------------------------------------------------
 Rotational constants (GHZ):           3.2780233           0.4317701           0.4286806
 Leave Link  202 at Sat Aug 21 09:32:12 2021, MaxMem=   104857600 cpu:               0.5 elap:               0.1
 (Enter /sw/arch/RedHatEnterpriseServer7/EB_production/2020/software/Gaussian/g16.c01/l301.exe)
 Standard basis: TZVP (5D, 7F)
 Ernie: Thresh=  0.10000D-02 Tol=  0.10000D-05 Strict=F.
 There are   279 symmetry adapted cartesian basis functions of A   symmetry.
 There are   270 symmetry adapted basis functions of A   symmetry.
   270 basis functions,   455 primitive gaussians,   279 cartesian basis functions
    42 alpha electrons       42 beta electrons
       nuclear repulsion energy       565.7799764660 Hartrees.
 IExCor=  404 DFT=T Ex=B Corr=P86 ExCW=0 ScaHFX=  0.000000
 ScaDFX=  1.000000  1.000000  1.000000  1.000000 ScalE2=  1.000000  1.000000
 IRadAn=      5 IRanWt=     -1 IRanGd=            0 ICorTp=0 IEmpDi=131
 NAtoms=   25 NActive=   25 NUniq=   25 SFac= 1.00D+00 NAtFMM=   60 NAOKFM=F Big=F
 Integral buffers will be    131072 words long.
 Raffenetti 2 integral format.
 Two-electron integral symmetry is turned on.
 R6Disp:  Grimme-D3 Dispersion energy=       -0.0292725414 Hartrees.
 Nuclear repulsion after empirical dispersion term =      565.7507039246 Hartrees.
 ------------------------------------------------------------------------------
 Polarizable Continuum Model (PCM)
 =================================
 Model                : PCM.
 Atomic radii         : UFF (Universal Force Field).
 Polarization charges : Total charges.
 Charge compensation  : None.
 Solution method      : On-the-fly selection.
 Cavity type          : Scaled VdW (van der Waals Surface) (Alpha=1.100).
 Cavity algorithm     : GePol (No added spheres)
                        Default sphere list used, NSphG=   25.
                        Lebedev-Laikov grids with approx.  5.0 points / Ang**2.
                        Smoothing algorithm: York/Karplus (Gamma=1.0000).
                        Polarization charges: spherical gaussians, with
                                              point-specific exponents (IZeta= 3).
                        Self-potential: point-specific (ISelfS= 7).
                        Self-field    : sphere-specific E.n sum rule (ISelfD= 2).
 1st derivatives      : Analytical E(r).r(x)/FMM algorithm (CHGder, D1EAlg=3).
                        Cavity 1st derivative terms included.
 Solvent              : Water, Eps=  78.355300 Eps(inf)=   1.777849
 ------------------------------------------------------------------------------
 GePol: Number of generator spheres                  =      25
 GePol: Total number of spheres                      =      25
 GePol: Number of exposed spheres                    =      24 ( 96.00%)
 GePol: Number of points                             =    1699
 GePol: Average weight of points                     =       0.14
 GePol: Minimum weight of points                     =   0.13D-09
 GePol: Maximum weight of points                     =    0.21616
 GePol: Number of points with low weight             =      92
 GePol: Fraction of low-weight points (<1% of avg)   =       5.41%
 GePol: Cavity surface area                          =    240.923 Ang**2
 GePol: Cavity volume                                =    247.751 Ang**3
 Leave Link  301 at Sat Aug 21 09:32:13 2021, MaxMem=   104857600 cpu:               1.7 elap:               0.1
 (Enter /sw/arch/RedHatEnterpriseServer7/EB_production/2020/software/Gaussian/g16.c01/l302.exe)
 NPDir=0 NMtPBC=     1 NCelOv=     1 NCel=       1 NClECP=     1 NCelD=      1
         NCelK=      1 NCelE2=     1 NClLst=     1 CellRange=     0.0.
 One-electron integrals computed using PRISM.
 One-electron integral symmetry used in STVInt
 NBasis=   270 RedAO= T EigKep=  2.08D-04  NBF=   270
 NBsUse=   270 1.00D-06 EigRej= -1.00D+00 NBFU=   270
 Precomputing XC quadrature grid using
 IXCGrd= 4 IRadAn=           5 IRanWt=          -1 IRanGd=           0 AccXCQ= 0.00D+00.
 Generated NRdTot=       0 NPtTot=           0 NUsed=           0 NTot=          32
 NSgBfM=   274   274   274   274   274 MxSgAt=    25 MxSgA2=    25.
 Leave Link  302 at Sat Aug 21 09:32:13 2021, MaxMem=   104857600 cpu:               6.0 elap:               0.3
 (Enter /sw/arch/RedHatEnterpriseServer7/EB_production/2020/software/Gaussian/g16.c01/l303.exe)
 DipDrv:  MaxL=1.
 Leave Link  303 at Sat Aug 21 09:32:14 2021, MaxMem=   104857600 cpu:               1.0 elap:               0.1
 (Enter /sw/arch/RedHatEnterpriseServer7/EB_production/2020/software/Gaussian/g16.c01/l401.exe)
 ExpMin= 9.52D-02 ExpMax= 6.95D+04 ExpMxC= 2.37D+03 IAcc=3 IRadAn=         5 AccDes= 0.00D+00
 Harris functional with IExCor=  404 and IRadAn=       5 diagonalized for initial guess.
 HarFok:  IExCor=  404 AccDes= 0.00D+00 IRadAn=         5 IDoV= 1 UseB2=F ITyADJ=14
 ICtDFT=  3500011 ScaDFX=  1.000000  1.000000  1.000000  1.000000
 FoFCou: FMM=F IPFlag=           0 FMFlag=      100000 FMFlg1=           0
         NFxFlg=           0 DoJE=T BraDBF=F KetDBF=T FulRan=T
         wScrn=  0.000000 ICntrl=       500 IOpCl=  0 I1Cent=   200000004 NGrid=           0
         NMat0=    1 NMatS0=      1 NMatT0=    0 NMatD0=    1 NMtDS0=    0 NMtDT0=    0
 Petite list used in FoFCou.
 Harris En= -828.701328852638    
 JPrj=0 DoOrth=F DoCkMO=F.
 Leave Link  401 at Sat Aug 21 09:32:15 2021, MaxMem=   104857600 cpu:              13.3 elap:               0.6
 (Enter /sw/arch/RedHatEnterpriseServer7/EB_production/2020/software/Gaussian/g16.c01/l502.exe)
 Integral symmetry usage will be decided dynamically.
 Closed shell SCF:
 Using DIIS extrapolation, IDIIS=  1040.
 NGot=   104857600 LenX=   104691616 LenY=   104613334
 Requested convergence on RMS density matrix=1.00D-08 within 128 cycles.
 Requested convergence on MAX density matrix=1.00D-06.
 Requested convergence on             energy=1.00D-06.
 No special actions if energy rises.
 Fock matrices will be formed incrementally for  20 cycles.

 Cycle   1  Pass 1  IDiag  1:
 FoFJK:  IHMeth= 1 ICntrl=     500 DoSepK=F KAlg= 0 I1Cent=           0 FoldK=F
 IRaf= 910000000 NMat=       1 IRICut=       1 DoRegI=T DoRafI=F ISym2E= 0 IDoP0=0 IntGTp=1.
 FoFCou: FMM=F IPFlag=           0 FMFlag=      100000 FMFlg1=           0
         NFxFlg=           0 DoJE=T BraDBF=F KetDBF=F FulRan=T
         wScrn=  0.000000 ICntrl=       500 IOpCl=  0 I1Cent=           0 NGrid=           0
         NMat0=    1 NMatS0=      1 NMatT0=    0 NMatD0=    1 NMtDS0=    0 NMtDT0=    0
 Symmetry not used in FoFCou.
 Inv3:  Mode=1 IEnd=     8659803.
 Iteration    1 A*A^-1 deviation from unit magnitude is 3.55D-15 for   1088.
 Iteration    1 A*A^-1 deviation from orthogonality  is 2.01D-15 for   1102    305.
 Iteration    1 A^-1*A deviation from unit magnitude is 3.33D-15 for   1088.
 Iteration    1 A^-1*A deviation from orthogonality  is 1.83D-15 for   1100     80.
 E= -828.440072807747    
 DIIS: error= 1.76D-02 at cycle   1 NSaved=   1.
 NSaved= 1 IEnMin= 1 EnMin= -828.440072807747     IErMin= 1 ErrMin= 1.76D-02
 ErrMax= 1.76D-02  0.00D+00 EMaxC= 1.00D-01 BMatC= 2.10D-01 BMatP= 2.10D-01
 IDIUse=3 WtCom= 8.24D-01 WtEn= 1.76D-01
 Coeff-Com:  0.100D+01
 Coeff-En:   0.100D+01
 Coeff:      0.100D+01
 Gap=     0.187 Goal=   None    Shift=    0.000
 GapD=    0.187 DampG=1.000 DampE=0.500 DampFc=0.5000 IDamp=-1.
 Damping current iteration by 5.00D-01
 RMSDP=4.40D-03 MaxDP=3.00D-01              OVMax= 1.62D-01

 Cycle   2  Pass 1  IDiag  1:
 RMSU=  2.20D-03    CP:  9.98D-01
 E= -828.501008557200     Delta-E=       -0.060935749454 Rises=F Damp=T
 DIIS: error= 7.84D-03 at cycle   2 NSaved=   2.
 NSaved= 2 IEnMin= 2 EnMin= -828.501008557200     IErMin= 2 ErrMin= 7.84D-03
 ErrMax= 7.84D-03  0.00D+00 EMaxC= 1.00D-01 BMatC= 3.18D-02 BMatP= 2.10D-01
 IDIUse=3 WtCom= 9.22D-01 WtEn= 7.84D-02
 Coeff-Com:  0.206D+00 0.794D+00
 Coeff-En:   0.313D+00 0.687D+00
 Coeff:      0.214D+00 0.786D+00
 Gap=     0.245 Goal=   None    Shift=    0.000
 RMSDP=1.05D-03 MaxDP=8.32D-02 DE=-6.09D-02 OVMax= 1.22D-01

 Cycle   3  Pass 1  IDiag  1:
 RMSU=  8.78D-04    CP:  9.96D-01  7.36D-01
 E= -828.622371391751     Delta-E=       -0.121362834551 Rises=F Damp=F
 DIIS: error= 5.18D-03 at cycle   3 NSaved=   3.
 NSaved= 3 IEnMin= 3 EnMin= -828.622371391751     IErMin= 3 ErrMin= 5.18D-03
 ErrMax= 5.18D-03  0.00D+00 EMaxC= 1.00D-01 BMatC= 1.27D-02 BMatP= 3.18D-02
 IDIUse=3 WtCom= 9.48D-01 WtEn= 5.18D-02
 Coeff-Com:  0.499D-01 0.371D+00 0.579D+00
 Coeff-En:   0.000D+00 0.000D+00 0.100D+01
 Coeff:      0.473D-01 0.352D+00 0.600D+00
 Gap=     0.204 Goal=   None    Shift=    0.000
 RMSDP=5.91D-04 MaxDP=2.91D-02 DE=-1.21D-01 OVMax= 2.96D-02

 Cycle   4  Pass 1  IDiag  1:
 RMSU=  3.62D-04    CP:  1.00D+00  8.01D-01  4.99D-01
 E= -828.627388361129     Delta-E=       -0.005016969378 Rises=F Damp=F
 DIIS: error= 4.40D-03 at cycle   4 NSaved=   4.
 NSaved= 4 IEnMin= 4 EnMin= -828.627388361129     IErMin= 4 ErrMin= 4.40D-03
 ErrMax= 4.40D-03  0.00D+00 EMaxC= 1.00D-01 BMatC= 5.95D-03 BMatP= 1.27D-02
 IDIUse=3 WtCom= 9.56D-01 WtEn= 4.40D-02
 Coeff-Com:  0.984D-02 0.117D+00 0.406D+00 0.467D+00
 Coeff-En:   0.000D+00 0.000D+00 0.356D+00 0.644D+00
 Coeff:      0.941D-02 0.112D+00 0.404D+00 0.475D+00
 Gap=     0.204 Goal=   None    Shift=    0.000
 RMSDP=2.95D-04 MaxDP=1.97D-02 DE=-5.02D-03 OVMax= 1.38D-02

 Cycle   5  Pass 1  IDiag  1:
 RMSU=  1.11D-04    CP:  9.97D-01  7.48D-01  6.57D-01  4.47D-01
 E= -828.632055957495     Delta-E=       -0.004667596365 Rises=F Damp=F
 DIIS: error= 7.06D-04 at cycle   5 NSaved=   5.
 NSaved= 5 IEnMin= 5 EnMin= -828.632055957495     IErMin= 5 ErrMin= 7.06D-04
 ErrMax= 7.06D-04  0.00D+00 EMaxC= 1.00D-01 BMatC= 1.17D-04 BMatP= 5.95D-03
 IDIUse=3 WtCom= 9.93D-01 WtEn= 7.06D-03
 Coeff-Com:  0.292D-02 0.322D-01 0.151D+00 0.220D+00 0.594D+00
 Coeff-En:   0.000D+00 0.000D+00 0.000D+00 0.000D+00 0.100D+01
 Coeff:      0.290D-02 0.320D-01 0.150D+00 0.219D+00 0.596D+00
 Gap=     0.202 Goal=   None    Shift=    0.000
 RMSDP=5.69D-05 MaxDP=3.12D-03 DE=-4.67D-03 OVMax= 2.04D-03

 Cycle   6  Pass 1  IDiag  1:
 RMSU=  2.91D-05    CP:  9.98D-01  7.64D-01  6.60D-01  4.77D-01  7.22D-01
 E= -828.632130071137     Delta-E=       -0.000074113643 Rises=F Damp=F
 DIIS: error= 2.81D-04 at cycle   6 NSaved=   6.
 NSaved= 6 IEnMin= 6 EnMin= -828.632130071137     IErMin= 6 ErrMin= 2.81D-04
 ErrMax= 2.81D-04  0.00D+00 EMaxC= 1.00D-01 BMatC= 2.14D-05 BMatP= 1.17D-04
 IDIUse=3 WtCom= 9.97D-01 WtEn= 2.81D-03
 Coeff-Com:  0.758D-03 0.101D-01 0.604D-01 0.991D-01 0.373D+00 0.457D+00
 Coeff-En:   0.000D+00 0.000D+00 0.000D+00 0.000D+00 0.102D+00 0.898D+00
 Coeff:      0.756D-03 0.101D-01 0.602D-01 0.988D-01 0.372D+00 0.458D+00
 Gap=     0.203 Goal=   None    Shift=    0.000
 RMSDP=1.89D-05 MaxDP=7.40D-04 DE=-7.41D-05 OVMax= 7.01D-04

 Cycle   7  Pass 1  IDiag  1:
 RMSU=  6.95D-06    CP:  9.98D-01  7.60D-01  6.63D-01  4.90D-01  7.08D-01
                    CP:  5.29D-01
 E= -828.632146383491     Delta-E=       -0.000016312354 Rises=F Damp=F
 DIIS: error= 4.04D-05 at cycle   7 NSaved=   7.
 NSaved= 7 IEnMin= 7 EnMin= -828.632146383491     IErMin= 7 ErrMin= 4.04D-05
 ErrMax= 4.04D-05  0.00D+00 EMaxC= 1.00D-01 BMatC= 8.25D-07 BMatP= 2.14D-05
 IDIUse=1 WtCom= 1.00D+00 WtEn= 0.00D+00
 Coeff-Com:  0.143D-03 0.301D-02 0.219D-01 0.372D-01 0.152D+00 0.242D+00
 Coeff-Com:  0.543D+00
 Coeff:      0.143D-03 0.301D-02 0.219D-01 0.372D-01 0.152D+00 0.242D+00
 Coeff:      0.543D+00
 Gap=     0.203 Goal=   None    Shift=    0.000
 RMSDP=4.71D-06 MaxDP=1.98D-04 DE=-1.63D-05 OVMax= 1.98D-04

 Cycle   8  Pass 1  IDiag  1:
 RMSU=  3.03D-06    CP:  9.98D-01  7.60D-01  6.60D-01  4.91D-01  7.25D-01
                    CP:  5.01D-01  7.31D-01
 E= -828.632147040550     Delta-E=       -0.000000657059 Rises=F Damp=F
 DIIS: error= 2.98D-05 at cycle   8 NSaved=   8.
 NSaved= 8 IEnMin= 8 EnMin= -828.632147040550     IErMin= 8 ErrMin= 2.98D-05
 ErrMax= 2.98D-05  0.00D+00 EMaxC= 1.00D-01 BMatC= 8.09D-08 BMatP= 8.25D-07
 IDIUse=1 WtCom= 1.00D+00 WtEn= 0.00D+00
 Coeff-Com:  0.582D-05 0.376D-03 0.350D-02 0.621D-02 0.303D-01 0.722D-01
 Coeff-Com:  0.297D+00 0.591D+00
 Coeff:      0.582D-05 0.376D-03 0.350D-02 0.621D-02 0.303D-01 0.722D-01
 Coeff:      0.297D+00 0.591D+00
 Gap=     0.203 Goal=   None    Shift=    0.000
 RMSDP=1.82D-06 MaxDP=9.92D-05 DE=-6.57D-07 OVMax= 9.57D-05

 Cycle   9  Pass 1  IDiag  1:
 RMSU=  5.35D-07    CP:  9.98D-01  7.60D-01  6.61D-01  4.90D-01  7.23D-01
                    CP:  5.28D-01  7.64D-01  6.29D-01
 E= -828.632147101858     Delta-E=       -0.000000061308 Rises=F Damp=F
 DIIS: error= 1.89D-06 at cycle   9 NSaved=   9.
 NSaved= 9 IEnMin= 9 EnMin= -828.632147101858     IErMin= 9 ErrMin= 1.89D-06
 ErrMax= 1.89D-06  0.00D+00 EMaxC= 1.00D-01 BMatC= 1.28D-09 BMatP= 8.09D-08
 IDIUse=1 WtCom= 1.00D+00 WtEn= 0.00D+00
 Coeff-Com: -0.259D-05 0.361D-04 0.548D-03 0.104D-02 0.549D-02 0.166D-01
 Coeff-Com:  0.822D-01 0.215D+00 0.679D+00
 Coeff:     -0.259D-05 0.361D-04 0.548D-03 0.104D-02 0.549D-02 0.166D-01
 Coeff:      0.822D-01 0.215D+00 0.679D+00
 Gap=     0.203 Goal=   None    Shift=    0.000
 RMSDP=1.99D-07 MaxDP=4.01D-06 DE=-6.13D-08 OVMax= 8.76D-06

 Cycle  10  Pass 1  IDiag  1:
 RMSU=  1.22D-07    CP:  9.98D-01  7.60D-01  6.61D-01  4.90D-01  7.23D-01
                    CP:  5.29D-01  7.69D-01  6.52D-01  7.66D-01
 E= -828.632147122938     Delta-E=       -0.000000021080 Rises=F Damp=F
 DIIS: error= 6.22D-07 at cycle  10 NSaved=  10.
 NSaved=10 IEnMin=10 EnMin= -828.632147122938     IErMin=10 ErrMin= 6.22D-07
 ErrMax= 6.22D-07  0.00D+00 EMaxC= 1.00D-01 BMatC= 2.17D-10 BMatP= 1.28D-09
 IDIUse=1 WtCom= 1.00D+00 WtEn= 0.00D+00
 Coeff-Com: -0.105D-05-0.605D-05 0.628D-04 0.156D-03 0.892D-03 0.344D-02
 Coeff-Com:  0.212D-01 0.723D-01 0.349D+00 0.553D+00
 Coeff:     -0.105D-05-0.605D-05 0.628D-04 0.156D-03 0.892D-03 0.344D-02
 Coeff:      0.212D-01 0.723D-01 0.349D+00 0.553D+00
 Gap=     0.203 Goal=   None    Shift=    0.000
 RMSDP=6.58D-08 MaxDP=2.11D-06 DE=-2.11D-08 OVMax= 3.15D-06

 Cycle  11  Pass 1  IDiag  1:
 RMSU=  3.51D-08    CP:  9.98D-01  7.60D-01  6.61D-01  4.90D-01  7.23D-01
                    CP:  5.28D-01  7.70D-01  6.59D-01  7.93D-01  7.94D-01
 E= -828.632147123133     Delta-E=       -0.000000000195 Rises=F Damp=F
 DIIS: error= 1.61D-07 at cycle  11 NSaved=  11.
 NSaved=11 IEnMin=11 EnMin= -828.632147123133     IErMin=11 ErrMin= 1.61D-07
 ErrMax= 1.61D-07  0.00D+00 EMaxC= 1.00D-01 BMatC= 1.73D-11 BMatP= 2.17D-10
 IDIUse=1 WtCom= 1.00D+00 WtEn= 0.00D+00
 Coeff-Com:  0.207D-06-0.631D-05-0.229D-04-0.300D-04-0.121D-03-0.881D-04
 Coeff-Com:  0.198D-02 0.147D-01 0.102D+00 0.273D+00 0.609D+00
 Coeff:      0.207D-06-0.631D-05-0.229D-04-0.300D-04-0.121D-03-0.881D-04
 Coeff:      0.198D-02 0.147D-01 0.102D+00 0.273D+00 0.609D+00
 Gap=     0.203 Goal=   None    Shift=    0.000
 RMSDP=1.65D-08 MaxDP=4.41D-07 DE=-1.95D-10 OVMax= 8.44D-07

 Cycle  12  Pass 1  IDiag  1:
 RMSU=  7.25D-09    CP:  9.98D-01  7.60D-01  6.61D-01  4.90D-01  7.23D-01
                    CP:  5.28D-01  7.70D-01  6.60D-01  8.09D-01  8.03D-01
                    CP:  7.22D-01
 E= -828.632147123147     Delta-E=       -0.000000000014 Rises=F Damp=F
 DIIS: error= 2.07D-08 at cycle  12 NSaved=  12.
 NSaved=12 IEnMin=12 EnMin= -828.632147123147     IErMin=12 ErrMin= 2.07D-08
 ErrMax= 2.07D-08  0.00D+00 EMaxC= 1.00D-01 BMatC= 2.51D-13 BMatP= 1.73D-11
 IDIUse=1 WtCom= 1.00D+00 WtEn= 0.00D+00
 Coeff-Com:  0.933D-07-0.225D-05-0.906D-05-0.144D-04-0.594D-04-0.105D-03
 Coeff-Com:  0.259D-03 0.382D-02 0.297D-01 0.875D-01 0.224D+00 0.655D+00
 Coeff:      0.933D-07-0.225D-05-0.906D-05-0.144D-04-0.594D-04-0.105D-03
 Coeff:      0.259D-03 0.382D-02 0.297D-01 0.875D-01 0.224D+00 0.655D+00
 Gap=     0.203 Goal=   None    Shift=    0.000
 RMSDP=2.93D-09 MaxDP=1.21D-07 DE=-1.44D-11 OVMax= 1.05D-07

 Error on total polarization charges =  0.01679
 SCF Done:  E(RB-P86) =  -828.632147123     A.U. after   12 cycles
            NFock= 12  Conv=0.29D-08     -V/T= 2.0041
 KE= 8.252753064300D+02 PE=-3.080977841760D+03 EE= 8.613196842820D+02
 Leave Link  502 at Sat Aug 21 09:32:33 2021, MaxMem=   104857600 cpu:             443.8 elap:              18.8
 (Enter /sw/arch/RedHatEnterpriseServer7/EB_production/2020/software/Gaussian/g16.c01/l601.exe)
 Copying SCF densities to generalized density rwf, IOpCl= 0 IROHF=0.

 **********************************************************************

            Population analysis using the SCF Density.

 **********************************************************************

 Orbital symmetries:
       Occupied  (A) (A) (A) (A) (A) (A) (A) (A) (A) (A) (A) (A)
                 (A) (A) (A) (A) (A) (A) (A) (A) (A) (A) (A) (A)
                 (A) (A) (A) (A) (A) (A) (A) (A) (A) (A) (A) (A)
                 (A) (A) (A) (A) (A) (A)
       Virtual   (A) (A) (A) (A) (A) (A) (A) (A) (A) (A) (A) (A)
                 (A) (A) (A) (A) (A) (A) (A) (A) (A) (A) (A) (A)
                 (A) (A) (A) (A) (A) (A) (A) (A) (A) (A) (A) (A)
                 (A) (A) (A) (A) (A) (A) (A) (A) (A) (A) (A) (A)
                 (A) (A) (A) (A) (A) (A) (A) (A) (A) (A) (A) (A)
                 (A) (A) (A) (A) (A) (A) (A) (A) (A) (A) (A) (A)
                 (A) (A) (A) (A) (A) (A) (A) (A) (A) (A) (A) (A)
                 (A) (A) (A) (A) (A) (A) (A) (A) (A) (A) (A) (A)
                 (A) (A) (A) (A) (A) (A) (A) (A) (A) (A) (A) (A)
                 (A) (A) (A) (A) (A) (A) (A) (A) (A) (A) (A) (A)
                 (A) (A) (A) (A) (A) (A) (A) (A) (A) (A) (A) (A)
                 (A) (A) (A) (A) (A) (A) (A) (A) (A) (A) (A) (A)
                 (A) (A) (A) (A) (A) (A) (A) (A) (A) (A) (A) (A)
                 (A) (A) (A) (A) (A) (A) (A) (A) (A) (A) (A) (A)
                 (A) (A) (A) (A) (A) (A) (A) (A) (A) (A) (A) (A)
                 (A) (A) (A) (A) (A) (A) (A) (A) (A) (A) (A) (A)
                 (A) (A) (A) (A) (A) (A) (A) (A) (A) (A) (A) (A)
                 (A) (A) (A) (A) (A) (A) (A) (A) (A) (A) (A) (A)
                 (A) (A) (A) (A) (A) (A) (A) (A) (A) (A) (A) (A)
 The electronic state is 1-A.
 Alpha  occ. eigenvalues -- -100.63806 -18.79620 -14.15323  -9.96784  -9.96774
 Alpha  occ. eigenvalues --   -9.95203  -9.95196  -9.95187  -9.94629  -9.07678
 Alpha  occ. eigenvalues --   -6.89501  -6.89497  -6.89480  -0.97701  -0.96354
 Alpha  occ. eigenvalues --   -0.72492  -0.69477  -0.68921  -0.65063  -0.62747
 Alpha  occ. eigenvalues --   -0.59442  -0.56011  -0.50044  -0.49148  -0.48266
 Alpha  occ. eigenvalues --   -0.45577  -0.44397  -0.41571  -0.39958  -0.39423
 Alpha  occ. eigenvalues --   -0.37564  -0.36584  -0.36030  -0.35751  -0.35726
 Alpha  occ. eigenvalues --   -0.35552  -0.32832  -0.29840  -0.23624  -0.20711
 Alpha  occ. eigenvalues --   -0.20675  -0.20437
 Alpha virt. eigenvalues --   -0.00148   0.01016   0.03262   0.03730   0.04272
 Alpha virt. eigenvalues --    0.04889   0.04928   0.05581   0.06308   0.07866
 Alpha virt. eigenvalues --    0.08571   0.08933   0.09321   0.09640   0.10473
 Alpha virt. eigenvalues --    0.11109   0.12041   0.12967   0.13205   0.13727
 Alpha virt. eigenvalues --    0.14852   0.15882   0.16629   0.18717   0.20540
 Alpha virt. eigenvalues --    0.21781   0.22789   0.23095   0.24602   0.25219
 Alpha virt. eigenvalues --    0.25882   0.27524   0.28002   0.28584   0.28845
 Alpha virt. eigenvalues --    0.31439   0.32062   0.33189   0.34699   0.35593
 Alpha virt. eigenvalues --    0.36423   0.36979   0.37095   0.38276   0.38645
 Alpha virt. eigenvalues --    0.39414   0.39765   0.39956   0.41203   0.41468
 Alpha virt. eigenvalues --    0.41800   0.42272   0.42891   0.43357   0.44359
 Alpha virt. eigenvalues --    0.44448   0.44935   0.45760   0.46715   0.47025
 Alpha virt. eigenvalues --    0.48144   0.49018   0.49941   0.51457   0.55219
 Alpha virt. eigenvalues --    0.61184   0.62181   0.64245   0.64764   0.66393
 Alpha virt. eigenvalues --    0.68317   0.72358   0.73735   0.77018   0.80978
 Alpha virt. eigenvalues --    0.81526   0.84263   0.84854   0.86588   0.88077
 Alpha virt. eigenvalues --    1.00611   1.01360   1.11543   1.13072   1.15975
 Alpha virt. eigenvalues --    1.16527   1.17814   1.18503   1.19114   1.20054
 Alpha virt. eigenvalues --    1.21475   1.22495   1.23772   1.24750   1.25135
 Alpha virt. eigenvalues --    1.27398   1.27550   1.28448   1.29038   1.29246
 Alpha virt. eigenvalues --    1.31267   1.32170   1.33132   1.35175   1.39499
 Alpha virt. eigenvalues --    1.40512   1.42254   1.43615   1.44614   1.44790
 Alpha virt. eigenvalues --    1.45546   1.49878   1.51108   1.52834   1.53792
 Alpha virt. eigenvalues --    1.55881   1.58004   1.60285   1.64045   1.64929
 Alpha virt. eigenvalues --    1.65657   1.65961   1.67996   1.68376   1.69101
 Alpha virt. eigenvalues --    1.69435   1.69656   1.69977   1.70763   1.71111
 Alpha virt. eigenvalues --    1.72282   1.72467   1.72922   1.73351   1.74047
 Alpha virt. eigenvalues --    1.76188   1.78421   1.83642   1.85679   1.87344
 Alpha virt. eigenvalues --    1.89166   1.89662   1.92501   1.93137   1.95256
 Alpha virt. eigenvalues --    1.98718   2.00454   2.02275   2.07771   2.13306
 Alpha virt. eigenvalues --    2.14547   2.14919   2.16190   2.16600   2.18796
 Alpha virt. eigenvalues --    2.24379   2.25695   2.26444   2.27320   2.27665
 Alpha virt. eigenvalues --    2.27846   2.28634   2.30570   2.31735   2.32988
 Alpha virt. eigenvalues --    2.34168   2.36697   2.37558   2.38344   2.40390
 Alpha virt. eigenvalues --    2.41163   2.46164   2.46786   2.50013   2.51261
 Alpha virt. eigenvalues --    2.54022   2.56158   2.56553   2.57903   2.59386
 Alpha virt. eigenvalues --    2.61451   2.61778   2.62684   2.64509   2.65231
 Alpha virt. eigenvalues --    2.68230   2.70568   2.71273   2.81540   2.82008
 Alpha virt. eigenvalues --    2.85543   2.88392   2.90040   2.91807   2.94177
 Alpha virt. eigenvalues --    2.95214   3.00722   3.04067   3.05775   3.07335
 Alpha virt. eigenvalues --    3.08630   3.11881   3.13516   3.17296   3.18447
 Alpha virt. eigenvalues --    3.20231   3.21035   3.24524   3.26426   3.27662
 Alpha virt. eigenvalues --    3.28445   3.30380   3.31323   3.34083   3.57598
 Alpha virt. eigenvalues --    3.59461   3.60644   3.83420   4.02467  21.63638
 Alpha virt. eigenvalues --   21.72187  21.77175  21.79751  21.80538  21.83303
 Alpha virt. eigenvalues --   24.08547  31.64227  43.21112
          Condensed to atoms (all electrons):
               1          2          3          4          5          6
     1  C    4.913578   0.237508  -0.100268   0.000435  -0.000459  -0.000124
     2  O    0.237508   8.022580   0.230881  -0.050763   0.010038  -0.000137
     3  C   -0.100268   0.230881   5.304439  -0.034036   0.008159   0.018283
     4  C    0.000435  -0.050763  -0.034036   5.889060   0.084581  -0.103744
     5  N   -0.000459   0.010038   0.008159   0.084581   6.502479   0.261680
     6  C   -0.000124  -0.000137   0.018283  -0.103744   0.261680   5.238359
     7  C   -0.000869  -0.001841  -0.003129  -0.082873   0.225298  -0.095595
     8  C    0.000222  -0.000055   0.009020  -0.107201   0.225579  -0.103047
     9  Cl   0.000000   0.000000  -0.000271   0.001264   0.005574  -0.039098
    10  H    0.387291  -0.053518   0.005551   0.011543  -0.001957   0.000156
    11  H    0.419044  -0.047080  -0.019077  -0.003999   0.000337  -0.000003
    12  H    0.380586  -0.029547   0.012090  -0.000825   0.000017  -0.000006
    13  H    0.010119  -0.035702   0.395611  -0.042684  -0.005639  -0.000935
    14  H   -0.003807  -0.036848   0.421322  -0.080399   0.003442  -0.000715
    15  H    0.000411   0.011744  -0.031150   0.382461  -0.010267  -0.006049
    16  H   -0.000284   0.004916  -0.018481   0.372881  -0.009200  -0.006287
    17  H   -0.000036  -0.000044   0.000843  -0.010539  -0.015403   0.379641
    18  H   -0.000000  -0.000031   0.000426  -0.010322  -0.015517   0.380440
    19  H    0.000003   0.000016  -0.000386   0.005590  -0.014768   0.348110
    20  H   -0.000017   0.000126   0.004674  -0.016128  -0.015258   0.009573
    21  H    0.000010  -0.000020   0.001051   0.006253  -0.019401  -0.002376
    22  H    0.000460   0.000225  -0.010353   0.010436  -0.018092  -0.006482
    23  H   -0.000026   0.000198  -0.009521   0.006092  -0.016237  -0.005790
    24  H   -0.000069   0.000052   0.005577  -0.017638  -0.014522   0.009372
    25  H    0.000009   0.000002   0.000852   0.006751  -0.019413  -0.002939
               7          8          9         10         11         12
     1  C   -0.000869   0.000222   0.000000   0.387291   0.419044   0.380586
     2  O   -0.001841  -0.000055   0.000000  -0.053518  -0.047080  -0.029547
     3  C   -0.003129   0.009020  -0.000271   0.005551  -0.019077   0.012090
     4  C   -0.082873  -0.107201   0.001264   0.011543  -0.003999  -0.000825
     5  N    0.225298   0.225579   0.005574  -0.001957   0.000337   0.000017
     6  C   -0.095595  -0.103047  -0.039098   0.000156  -0.000003  -0.000006
     7  C    5.340748  -0.138608  -0.047919   0.000213   0.000061   0.000052
     8  C   -0.138608   5.356910  -0.048472  -0.000151   0.000043  -0.000015
     9  Cl  -0.047919  -0.048472  17.823975   0.000000  -0.000000   0.000000
    10  H    0.000213  -0.000151   0.000000   0.613722  -0.055171  -0.025739
    11  H    0.000061   0.000043  -0.000000  -0.055171   0.577971  -0.022816
    12  H    0.000052  -0.000015   0.000000  -0.025739  -0.022816   0.537474
    13  H   -0.008661   0.023940   0.000021  -0.000638   0.000478  -0.000420
    14  H    0.024782  -0.009664   0.000021  -0.003677   0.009467   0.000567
    15  H    0.014407  -0.019923   0.000011   0.000132   0.000187   0.000007
    16  H   -0.023894   0.014785   0.000003  -0.004305   0.000709  -0.000121
    17  H   -0.004383   0.010348   0.000961   0.000032  -0.000001   0.000000
    18  H    0.010222  -0.004486   0.000942   0.000008  -0.000001   0.000000
    19  H   -0.009431  -0.008336   0.052144  -0.000007   0.000000   0.000000
    20  H    0.384320  -0.004409   0.000626   0.000105  -0.000000  -0.000008
    21  H    0.337768   0.004933   0.053592  -0.000004   0.000004   0.000000
    22  H    0.364438   0.012116   0.001920  -0.000092  -0.000014  -0.000004
    23  H    0.011752   0.364756   0.001896   0.000002  -0.000000   0.000001
    24  H   -0.004148   0.384886   0.000573   0.000006   0.000005   0.000001
    25  H    0.006119   0.336559   0.054147  -0.000002   0.000000  -0.000000
              13         14         15         16         17         18
     1  C    0.010119  -0.003807   0.000411  -0.000284  -0.000036  -0.000000
     2  O   -0.035702  -0.036848   0.011744   0.004916  -0.000044  -0.000031
     3  C    0.395611   0.421322  -0.031150  -0.018481   0.000843   0.000426
     4  C   -0.042684  -0.080399   0.382461   0.372881  -0.010539  -0.010322
     5  N   -0.005639   0.003442  -0.010267  -0.009200  -0.015403  -0.015517
     6  C   -0.000935  -0.000715  -0.006049  -0.006287   0.379641   0.380440
     7  C   -0.008661   0.024782   0.014407  -0.023894  -0.004383   0.010222
     8  C    0.023940  -0.009664  -0.019923   0.014785   0.010348  -0.004486
     9  Cl   0.000021   0.000021   0.000011   0.000003   0.000961   0.000942
    10  H   -0.000638  -0.003677   0.000132  -0.004305   0.000032   0.000008
    11  H    0.000478   0.009467   0.000187   0.000709  -0.000001  -0.000001
    12  H   -0.000420   0.000567   0.000007  -0.000121   0.000000   0.000000
    13  H    0.521675  -0.032668  -0.005486   0.004696  -0.000006   0.000065
    14  H   -0.032668   0.538267   0.006057  -0.004102   0.000045  -0.000030
    15  H   -0.005486   0.006057   0.466771  -0.016083  -0.001021   0.004408
    16  H    0.004696  -0.004102  -0.016083   0.474943   0.004670  -0.000876
    17  H   -0.000006   0.000045  -0.001021   0.004670   0.493922  -0.023174
    18  H    0.000065  -0.000030   0.004408  -0.000876  -0.023174   0.492785
    19  H    0.000019   0.000025   0.000183   0.000087  -0.017736  -0.017569
    20  H    0.000804  -0.004299  -0.000299   0.000945   0.000122  -0.000392
    21  H   -0.000062   0.000351  -0.000145  -0.000184  -0.001527   0.000723
    22  H    0.000488  -0.001491   0.000246   0.001851   0.002191  -0.000024
    23  H   -0.001089   0.000620   0.002117   0.000306  -0.000062   0.002214
    24  H   -0.005667   0.000760   0.000944  -0.000288  -0.000384   0.000126
    25  H    0.000166   0.000044  -0.000041  -0.000238   0.000766  -0.001583
              19         20         21         22         23         24
     1  C    0.000003  -0.000017   0.000010   0.000460  -0.000026  -0.000069
     2  O    0.000016   0.000126  -0.000020   0.000225   0.000198   0.000052
     3  C   -0.000386   0.004674   0.001051  -0.010353  -0.009521   0.005577
     4  C    0.005590  -0.016128   0.006253   0.010436   0.006092  -0.017638
     5  N   -0.014768  -0.015258  -0.019401  -0.018092  -0.016237  -0.014522
     6  C    0.348110   0.009573  -0.002376  -0.006482  -0.005790   0.009372
     7  C   -0.009431   0.384320   0.337768   0.364438   0.011752  -0.004148
     8  C   -0.008336  -0.004409   0.004933   0.012116   0.364756   0.384886
     9  Cl   0.052144   0.000626   0.053592   0.001920   0.001896   0.000573
    10  H   -0.000007   0.000105  -0.000004  -0.000092   0.000002   0.000006
    11  H    0.000000  -0.000000   0.000004  -0.000014  -0.000000   0.000005
    12  H    0.000000  -0.000008   0.000000  -0.000004   0.000001   0.000001
    13  H    0.000019   0.000804  -0.000062   0.000488  -0.001089  -0.005667
    14  H    0.000025  -0.004299   0.000351  -0.001491   0.000620   0.000760
    15  H    0.000183  -0.000299  -0.000145   0.000246   0.002117   0.000944
    16  H    0.000087   0.000945  -0.000184   0.001851   0.000306  -0.000288
    17  H   -0.017736   0.000122  -0.001527   0.002191  -0.000062  -0.000384
    18  H   -0.017569  -0.000392   0.000723  -0.000024   0.002214   0.000126
    19  H    0.494588   0.000300  -0.000527  -0.000265  -0.000342   0.000261
    20  H    0.000300   0.483784  -0.013940  -0.021534   0.000125   0.001953
    21  H   -0.000527  -0.013940   0.493100  -0.017791  -0.000115  -0.000445
    22  H   -0.000265  -0.021534  -0.017791   0.491003  -0.000344   0.000056
    23  H   -0.000342   0.000125  -0.000115  -0.000344   0.490646  -0.021743
    24  H    0.000261   0.001953  -0.000445   0.000056  -0.021743   0.481254
    25  H   -0.000168  -0.000623  -0.006093  -0.000138  -0.017268  -0.013442
              25
     1  C    0.000009
     2  O    0.000002
     3  C    0.000852
     4  C    0.006751
     5  N   -0.019413
     6  C   -0.002939
     7  C    0.006119
     8  C    0.336559
     9  Cl   0.054147
    10  H   -0.000002
    11  H    0.000000
    12  H   -0.000000
    13  H    0.000166
    14  H    0.000044
    15  H   -0.000041
    16  H   -0.000238
    17  H    0.000766
    18  H   -0.001583
    19  H   -0.000168
    20  H   -0.000623
    21  H   -0.006093
    22  H   -0.000138
    23  H   -0.017268
    24  H   -0.013442
    25  H    0.490945
 Mulliken charges:
               1
     1  C   -0.243718
     2  O   -0.262701
     3  C   -0.192108
     4  C   -0.216195
     5  N   -0.151051
     6  C   -0.272288
     7  C   -0.298827
     8  C   -0.299732
     9  Cl  -0.861910
    10  H    0.126500
    11  H    0.139854
    12  H    0.148706
    13  H    0.181573
    14  H    0.171930
    15  H    0.200378
    16  H    0.203551
    17  H    0.180774
    18  H    0.181648
    19  H    0.168208
    20  H    0.189450
    21  H    0.164846
    22  H    0.191193
    23  H    0.191813
    24  H    0.192521
    25  H    0.165587
 Sum of Mulliken charges =  -0.00000
 Mulliken charges with hydrogens summed into heavy atoms:
               1
     1  C    0.171342
     2  O   -0.262701
     3  C    0.161395
     4  C    0.187734
     5  N   -0.151051
     6  C    0.258342
     7  C    0.246661
     8  C    0.250189
     9  Cl  -0.861910
 Electronic spatial extent (au):  <R**2>=           2626.8229
 Charge=             -0.0000 electrons
 Dipole moment (field-independent basis, Debye):
    X=             15.4150    Y=              2.1869    Z=             -1.8102  Tot=             15.6742
 Quadrupole moment (field-independent basis, Debye-Ang):
   XX=           -127.6054   YY=            -61.5708   ZZ=            -61.1440
   XY=            -13.2510   XZ=             -3.2194   YZ=             -0.1437
 Traceless Quadrupole moment (field-independent basis, Debye-Ang):
   XX=            -44.1653   YY=             21.8693   ZZ=             22.2961
   XY=            -13.2510   XZ=             -3.2194   YZ=             -0.1437
 Octapole moment (field-independent basis, Debye-Ang**2):
  XXX=            303.4204  YYY=              8.9167  ZZZ=              0.2160  XYY=             13.3782
  XXY=             18.4203  XXZ=            -26.2048  XZZ=              7.8159  YZZ=              3.5106
  YYZ=             -0.8241  XYZ=             -1.4471
 Hexadecapole moment (field-independent basis, Debye-Ang**3):
 XXXX=          -3885.8719 YYYY=           -296.1248 ZZZZ=           -272.6574 XXXY=           -192.0390
 XXXZ=            -58.1850 YYYX=            -18.2921 YYYZ=             -0.1279 ZZZX=              2.3972
 ZZZY=             -0.3480 XXYY=           -558.5183 XXZZ=           -550.5058 YYZZ=            -96.5507
 XXYZ=             -1.2724 YYXZ=              7.3061 ZZXY=             -6.2041
 N-N= 5.657507039246D+02 E-N=-3.080977845900D+03  KE= 8.252753064300D+02
 No NMR shielding tensors so no spin-rotation constants.
 Leave Link  601 at Sat Aug 21 09:32:34 2021, MaxMem=   104857600 cpu:               5.9 elap:               0.3
 (Enter /sw/arch/RedHatEnterpriseServer7/EB_production/2020/software/Gaussian/g16.c01/l701.exe)
 ... and contract with generalized density number  0.
 Compute integral first derivatives.
 R6Disp: Adding Grimme-D3 dispersion energy 1st derivatives to the gradient.
 D1PCM: PCM CHGder 1st derivatives, ID1Alg=3 FixD1E=F DoIter=F DoCFld=F I1PDM=0.
 GePol: Maximum number of non-zero 1st derivatives   =     258
 Leave Link  701 at Sat Aug 21 09:32:35 2021, MaxMem=   104857600 cpu:              28.5 elap:               1.4
 (Enter /sw/arch/RedHatEnterpriseServer7/EB_production/2020/software/Gaussian/g16.c01/l702.exe)
 L702 exits ... SP integral derivatives will be done elsewhere.
 Leave Link  702 at Sat Aug 21 09:32:36 2021, MaxMem=   104857600 cpu:               0.5 elap:               0.0
 (Enter /sw/arch/RedHatEnterpriseServer7/EB_production/2020/software/Gaussian/g16.c01/l703.exe)
 Integral derivatives from FoFJK, PRISM(SPDF).
 Compute integral first derivatives, UseDBF=F ICtDFT=           0.
 Calling FoFJK, ICntrl=      2527 FMM=F ISym2X=0 I1Cent= 0 IOpClX= 0 NMat=1 NMatS=1 NMatT=0.
 FoFJK:  IHMeth= 1 ICntrl=    2527 DoSepK=F KAlg= 0 I1Cent=           0 FoldK=F
 IRaf=         0 NMat=       1 IRICut=       1 DoRegI=T DoRafI=F ISym2E= 0 IDoP0=0 IntGTp=1.
 FoFCou: FMM=F IPFlag=           0 FMFlag=      100000 FMFlg1=         800
         NFxFlg=           0 DoJE=F BraDBF=F KetDBF=F FulRan=T
         wScrn=  0.000000 ICntrl=      2527 IOpCl=  0 I1Cent=           0 NGrid=           0
         NMat0=    1 NMatS0=      1 NMatT0=    0 NMatD0=    1 NMtDS0=    0 NMtDT0=    0
 Symmetry not used in FoFCou.
 Leave Link  703 at Sat Aug 21 09:32:39 2021, MaxMem=   104857600 cpu:              71.2 elap:               3.1
 (Enter /sw/arch/RedHatEnterpriseServer7/EB_production/2020/software/Gaussian/g16.c01/l716.exe)
 Dipole        = 6.06472897D+00 8.60407900D-01-7.12184125D-01
 ***** Axes restored to original set *****
 -------------------------------------------------------------------
 Center     Atomic                   Forces (Hartrees/Bohr)
 Number     Number              X              Y              Z
 -------------------------------------------------------------------
      1        6           0.017267364   -0.012740093   -0.006624920
      2        8          -0.003930793    0.003962601    0.004647637
      3        6          -0.020806294    0.010637032   -0.002059291
      4        6           0.015066140   -0.027718464    0.011625319
      5        7           0.008512263    0.002783106    0.006986446
      6        6           0.020182025    0.028823564    0.019178414
      7        6           0.007248150    0.001380097   -0.037249868
      8        6          -0.036650501    0.000284262    0.009587497
      9       17          -0.001019173    0.003853080   -0.000854052
     10        1          -0.002489305   -0.003854185   -0.001633055
     11        1           0.003435490    0.003136436    0.001416063
     12        1          -0.004028170    0.005036477   -0.000950681
     13        1           0.004035298   -0.000175121   -0.000859329
     14        1           0.002738569   -0.002122624    0.006472350
     15        1          -0.002575636    0.005669618   -0.009906495
     16        1          -0.008892205    0.006435261   -0.001495950
     17        1          -0.010288972   -0.004915593   -0.000356747
     18        1          -0.000957012   -0.004880859   -0.010264381
     19        1          -0.002326284   -0.011691813   -0.002332829
     20        1           0.003599340    0.004549718    0.008370008
     21        1          -0.005523963   -0.006355873    0.009183890
     22        1          -0.007823991   -0.000500971    0.008449327
     23        1           0.007786355   -0.000279252   -0.008278764
     24        1           0.008574012    0.004901485    0.003202438
     25        1           0.008867295   -0.006217888   -0.006253027
 -------------------------------------------------------------------
 Cartesian Forces:  Max     0.037249868 RMS     0.010633383
 Leave Link  716 at Sat Aug 21 09:32:39 2021, MaxMem=   104857600 cpu:               0.6 elap:               0.1
 (Enter /sw/arch/RedHatEnterpriseServer7/EB_production/2020/software/Gaussian/g16.c01/l103.exe)

 GradGradGradGradGradGradGradGradGradGradGradGradGradGradGradGradGradGrad
 Berny optimization.
 FormGI is forming the generalized inverse of G from B-inverse, IUseBI=4.
 Internal  Forces:  Max     0.017871401 RMS     0.004562949
 Search for a local minimum.
 Step number   1 out of a maximum of  150
 All quantities printed in internal units (Hartrees-Bohrs-Radians)
 RMS Force = .45629D-02 SwitMx=.10000D-02 MixMth= 1
 Mixed Optimization -- RFO/linear search
 Second derivative matrix not updated -- first step.
 ITU=  0
     Eigenvalues ---    0.00230   0.00369   0.00401   0.00498   0.00503
     Eigenvalues ---    0.01479   0.01545   0.01559   0.02206   0.02591
     Eigenvalues ---    0.03257   0.03420   0.03951   0.03972   0.04582
     Eigenvalues ---    0.04727   0.04873   0.05281   0.05362   0.05806
     Eigenvalues ---    0.05874   0.05917   0.07083   0.08481   0.08737
     Eigenvalues ---    0.09269   0.10058   0.10491   0.11396   0.11422
     Eigenvalues ---    0.11422   0.11447   0.11521   0.12156   0.12319
     Eigenvalues ---    0.12492   0.13822   0.15597   0.16000   0.16000
     Eigenvalues ---    0.16000   0.17322   0.19396   0.21933   0.21946
     Eigenvalues ---    0.25000   0.27956   0.28033   0.29212   0.32102
     Eigenvalues ---    0.32117   0.32190   0.32204   0.32216   0.32218
     Eigenvalues ---    0.32280   0.32281   0.32343   0.32363   0.32430
     Eigenvalues ---    0.32508   0.32556   0.32631   0.32680   0.32758
     Eigenvalues ---    0.32883   0.32927   0.43055   0.43833
 RFO step:  Lambda=-1.26811697D-02 EMin= 2.30000000D-03
 Linear search not attempted -- first point.
 Iteration  1 RMS(Cart)=  0.04401735 RMS(Int)=  0.00110710
 Iteration  2 RMS(Cart)=  0.00158321 RMS(Int)=  0.00038210
 Iteration  3 RMS(Cart)=  0.00000205 RMS(Int)=  0.00038209
 Iteration  4 RMS(Cart)=  0.00000000 RMS(Int)=  0.00038209
 ITry= 1 IFail=0 DXMaxC= 2.49D-01 DCOld= 1.00D+10 DXMaxT= 3.00D-01 DXLimC= 3.00D+00 Rises=F
 Variable       Old X    -DE/DX   Delta X   Delta X   Delta X     New X
                                 (Linear)    (Quad)   (Total)
    R1        2.66654   0.01787   0.00000   0.03962   0.03962   2.70617
    R2        2.10220  -0.00399   0.00000  -0.01187  -0.01187   2.09033
    R3        2.10184  -0.00377   0.00000  -0.01121  -0.01121   2.09063
    R4        2.09617  -0.00607   0.00000  -0.01787  -0.01787   2.07831
    R5        2.67601   0.00665   0.00000   0.01501   0.01501   2.69102
    R6        2.92065  -0.00187   0.00000  -0.00639  -0.00639   2.91426
    R7        2.09478  -0.00412   0.00000  -0.01210  -0.01210   2.08268
    R8        2.10497  -0.00632   0.00000  -0.01888  -0.01888   2.08609
    R9        2.83004   0.01015   0.00000   0.02993   0.02993   2.85997
   R10        2.10658  -0.00980   0.00000  -0.02937  -0.02937   2.07721
   R11        2.10472  -0.00865   0.00000  -0.02585  -0.02585   2.07888
   R12        2.80571   0.01140   0.00000   0.03454   0.03449   2.84020
   R13        2.80152   0.01159   0.00000   0.03397   0.03395   2.83548
   R14        2.80092   0.01164   0.00000   0.03410   0.03409   2.83500
   R15        2.10451  -0.00991   0.00000  -0.02960  -0.02960   2.07491
   R16        2.10448  -0.00988   0.00000  -0.02952  -0.02952   2.07496
   R17        2.10427  -0.00711   0.00000  -0.02087  -0.02084   2.08343
   R18        2.09838  -0.00928   0.00000  -0.02742  -0.02742   2.07095
   R19        2.09988  -0.00678   0.00000  -0.02024  -0.02025   2.07963
   R20        2.10332  -0.00917   0.00000  -0.02734  -0.02734   2.07599
   R21        2.10335  -0.00909   0.00000  -0.02708  -0.02708   2.07627
   R22        2.09925  -0.00953   0.00000  -0.02822  -0.02822   2.07103
   R23        2.09972  -0.00673   0.00000  -0.02015  -0.02016   2.07956
   R24        4.95053   0.00180   0.00000   0.04025   0.04030   4.99083
   R25        4.86543   0.00040   0.00000   0.00311   0.00310   4.86853
   R26        4.85639   0.00042   0.00000   0.00297   0.00297   4.85935
    A1        1.94889   0.00296   0.00000   0.01641   0.01643   1.96532
    A2        1.93205   0.00262   0.00000   0.01515   0.01516   1.94722
    A3        1.89579  -0.00397   0.00000  -0.02229  -0.02221   1.87358
    A4        1.92608  -0.00367   0.00000  -0.02251  -0.02254   1.90354
    A5        1.87906   0.00055   0.00000   0.00312   0.00319   1.88225
    A6        1.87958   0.00138   0.00000   0.00949   0.00956   1.88915
    A7        1.92993   0.01566   0.00000   0.05963   0.05963   1.98957
    A8        1.91537  -0.00574   0.00000  -0.03049  -0.03095   1.88442
    A9        1.86388   0.00247   0.00000   0.02168   0.02205   1.88592
   A10        1.97013  -0.00060   0.00000  -0.02930  -0.03004   1.94010
   A11        1.90766   0.00273   0.00000   0.02769   0.02774   1.93540
   A12        1.94589   0.00139   0.00000  -0.00268  -0.00368   1.94221
   A13        1.85743   0.00020   0.00000   0.01810   0.01805   1.87547
   A14        2.00847   0.00430   0.00000   0.01501   0.01537   2.02384
   A15        1.87432   0.00137   0.00000   0.02243   0.02242   1.89674
   A16        1.88517   0.00237   0.00000   0.03016   0.03019   1.91536
   A17        1.92179  -0.00480   0.00000  -0.04262  -0.04293   1.87886
   A18        1.91909  -0.00575   0.00000  -0.04869  -0.04902   1.87007
   A19        1.84757   0.00269   0.00000   0.02767   0.02575   1.87332
   A20        1.87507  -0.00032   0.00000   0.00398   0.00403   1.87911
   A21        1.92475   0.00052   0.00000  -0.00386  -0.00405   1.92070
   A22        1.92596   0.00034   0.00000  -0.00552  -0.00570   1.92026
   A23        1.88727   0.00084   0.00000   0.01254   0.01260   1.89987
   A24        1.88763   0.00092   0.00000   0.01306   0.01312   1.90075
   A25        1.96036  -0.00221   0.00000  -0.01842  -0.01853   1.94183
   A26        1.94021  -0.00361   0.00000  -0.03294  -0.03298   1.90723
   A27        1.94042  -0.00366   0.00000  -0.03320  -0.03324   1.90718
   A28        1.94361  -0.00537   0.00000  -0.02628  -0.02637   1.91724
   A29        1.88378   0.00269   0.00000   0.02308   0.02161   1.90539
   A30        1.87665   0.00537   0.00000   0.03743   0.03677   1.91342
   A31        1.87620   0.00537   0.00000   0.03775   0.03709   1.91329
   A32        1.94908  -0.00224   0.00000  -0.02473  -0.02493   1.92415
   A33        1.94396  -0.00432   0.00000  -0.01757  -0.01760   1.92636
   A34        1.93885  -0.00521   0.00000  -0.04242  -0.04246   1.89639
   A35        1.88913   0.00316   0.00000   0.01911   0.01863   1.90777
   A36        1.88186   0.00300   0.00000   0.02512   0.02385   1.90570
   A37        1.85723   0.00641   0.00000   0.04639   0.04598   1.90321
   A38        1.93787  -0.00505   0.00000  -0.04126  -0.04128   1.89659
   A39        1.94739  -0.00214   0.00000  -0.02416  -0.02435   1.92304
   A40        1.94409  -0.00444   0.00000  -0.01787  -0.01792   1.92617
   A41        1.88212   0.00294   0.00000   0.02520   0.02401   1.90613
   A42        1.85729   0.00633   0.00000   0.04555   0.04514   1.90242
   A43        1.89152   0.00311   0.00000   0.01817   0.01770   1.90922
   A44        0.94113   0.00052   0.00000  -0.00050  -0.00042   0.94071
   A45        0.94323   0.00053   0.00000  -0.00024  -0.00017   0.94305
   A46        1.14798  -0.00125   0.00000  -0.01405  -0.01404   1.13394
   A47        2.46676   0.00583   0.00000   0.02214   0.02216   2.48892
   A48        2.41477   0.00504   0.00000   0.02524   0.02521   2.43998
   A49        2.42019   0.00513   0.00000   0.02586   0.02584   2.44603
    D1        0.97355   0.00004   0.00000   0.00713   0.00722   0.98077
    D2       -1.17985   0.00076   0.00000   0.01350   0.01341  -1.16645
    D3        3.04310  -0.00003   0.00000   0.00665   0.00665   3.04975
    D4       -1.70522   0.00271   0.00000   0.06864   0.06809  -1.63714
    D5        2.51208   0.00113   0.00000   0.03967   0.03957   2.55164
    D6        0.47688  -0.00031   0.00000   0.02023   0.02089   0.49777
    D7       -3.11863  -0.00205   0.00000  -0.03887  -0.03865   3.12590
    D8       -0.97220  -0.00432   0.00000  -0.06683  -0.06682  -1.03903
    D9        1.01332   0.00063   0.00000  -0.00908  -0.00869   1.00463
   D10       -1.08004  -0.00077   0.00000  -0.01415  -0.01426  -1.09431
   D11        1.06638  -0.00305   0.00000  -0.04211  -0.04243   1.02395
   D12        3.05191   0.00190   0.00000   0.01564   0.01570   3.06760
   D13        0.96856   0.00201   0.00000   0.02381   0.02374   0.99230
   D14        3.11498  -0.00027   0.00000  -0.00416  -0.00443   3.11056
   D15       -1.18268   0.00468   0.00000   0.05359   0.05370  -1.12897
   D16        3.12385  -0.00021   0.00000  -0.00265  -0.00264   3.12121
   D17       -1.10626   0.00090   0.00000   0.01258   0.01261  -1.09365
   D18        1.06968  -0.00132   0.00000  -0.01761  -0.01760   1.05208
   D19        1.00297  -0.00137   0.00000  -0.00996  -0.00953   0.99344
   D20        3.05604  -0.00027   0.00000   0.00527   0.00571   3.06175
   D21       -1.05120  -0.00248   0.00000  -0.02492  -0.02450  -1.07570
   D22       -1.02625   0.00155   0.00000   0.00997   0.00952  -1.01673
   D23        1.02682   0.00265   0.00000   0.02520   0.02476   1.05158
   D24       -3.08042   0.00043   0.00000  -0.00499  -0.00545  -3.08587
   D25        1.04812  -0.00068   0.00000  -0.00667  -0.00664   1.04148
   D26       -1.05101   0.00082   0.00000   0.00870   0.00865  -1.04236
   D27        3.14036   0.00009   0.00000   0.00089   0.00089   3.14125
   D28       -1.02918  -0.00157   0.00000  -0.01107  -0.01099  -1.04017
   D29       -3.12831  -0.00007   0.00000   0.00430   0.00430  -3.12401
   D30        1.06306  -0.00080   0.00000  -0.00350  -0.00346   1.05960
   D31        3.12704   0.00005   0.00000  -0.00394  -0.00394   3.12310
   D32        1.02791   0.00155   0.00000   0.01143   0.01135   1.03926
   D33       -1.06390   0.00082   0.00000   0.00362   0.00359  -1.06031
   D34        1.31373  -0.00074   0.00000  -0.01638  -0.01626   1.29747
   D35       -2.85498  -0.00127   0.00000  -0.02145  -0.02141  -2.87639
   D36       -0.78789   0.00055   0.00000  -0.00238  -0.00243  -0.79033
   D37       -2.92392  -0.00034   0.00000  -0.00643  -0.00629  -2.93021
   D38       -0.80945  -0.00088   0.00000  -0.01149  -0.01143  -0.82088
   D39        1.25764   0.00095   0.00000   0.00758   0.00754   1.26518
[...]
   18      H18      6.45  -0.055   -1.26    0.91   -0.67
   19      H19      3.04  -0.011    0.10    0.43   -0.05
   20      H20      5.48  -0.051   -1.28    0.77   -0.51
   21      H21      3.10  -0.012    0.10    0.44   -0.05
   22      H22      6.47  -0.053   -1.34    0.91   -0.64
   23      H23      6.47  -0.055   -1.28    0.91   -0.68
   24      H24      5.71  -0.044   -0.96    0.81   -0.54
   25      H25      3.11  -0.010    0.07    0.44   -0.05
 --------------------------------------------------------------------
 - cavitation energy not included in the total energy.
 - dispersion energy not included in the total energy.
 - repulsion  energy not included in the total energy.
 After PCM corrections, the energy is  -828.628005881     a.u.
 --------------------------------------------------------------------
 Writing COSMO formatted file "MSIGGUSMCUUDGY-UHFFFAOYSA-M.cosmo"
 Recomputed dielectric energy= -0.076481 old= -0.076506 diff= 2.46D-05

 **********************************************************************

            Population analysis using the SCF Density.

 **********************************************************************

 Orbital symmetries:
       Occupied  (A) (A) (A) (A) (A) (A) (A) (A) (A) (A) (A) (A)
                 (A) (A) (A) (A) (A) (A) (A) (A) (A) (A) (A) (A)
                 (A) (A) (A) (A) (A) (A) (A) (A) (A) (A) (A) (A)
                 (A) (A) (A) (A) (A) (A)
       Virtual   (A) (A) (A) (A) (A) (A) (A) (A) (A) (A) (A) (A)
                 (A) (A) (A) (A) (A) (A) (A) (A) (A) (A) (A) (A)
                 (A) (A) (A) (A) (A) (A) (A) (A) (A) (A) (A) (A)
                 (A) (A) (A) (A) (A) (A) (A) (A) (A) (A) (A) (A)
                 (A) (A) (A) (A) (A) (A) (A) (A) (A) (A) (A) (A)
                 (A) (A) (A) (A) (A) (A) (A) (A) (A) (A) (A) (A)
                 (A) (A) (A) (A) (A) (A) (A) (A) (A) (A) (A) (A)
                 (A) (A) (A) (A) (A) (A) (A) (A) (A) (A) (A) (A)
                 (A) (A) (A) (A) (A) (A) (A) (A) (A) (A) (A) (A)
                 (A) (A) (A) (A) (A) (A) (A) (A) (A) (A) (A) (A)
                 (A) (A) (A) (A) (A) (A) (A) (A) (A) (A) (A) (A)
                 (A) (A) (A) (A) (A) (A) (A) (A) (A) (A) (A) (A)
                 (A) (A) (A) (A) (A) (A) (A) (A) (A) (A) (A) (A)
                 (A) (A) (A) (A) (A) (A) (A) (A) (A) (A) (A) (A)
                 (A) (A) (A) (A) (A) (A) (A) (A) (A) (A) (A) (A)
                 (A) (A) (A) (A) (A) (A) (A) (A) (A) (A) (A) (A)
                 (A) (A) (A) (A) (A) (A) (A) (A) (A) (A) (A) (A)
                 (A) (A) (A) (A) (A) (A) (A) (A) (A) (A) (A) (A)
                 (A) (A) (A) (A) (A) (A) (A) (A) (A) (A) (A) (A)
 The electronic state is 1-A.
 Alpha  occ. eigenvalues -- -100.64586 -18.78878 -14.13353  -9.95652  -9.95186
 Alpha  occ. eigenvalues --   -9.93927  -9.93876  -9.93865  -9.93771  -9.08461
 Alpha  occ. eigenvalues --   -6.90278  -6.90273  -6.90272  -0.95824  -0.93361
 Alpha  occ. eigenvalues --   -0.71206  -0.67716  -0.67626  -0.64363  -0.63462
 Alpha  occ. eigenvalues --   -0.58536  -0.54706  -0.48398  -0.47398  -0.46389
 Alpha  occ. eigenvalues --   -0.44274  -0.43336  -0.40579  -0.39010  -0.38517
 Alpha  occ. eigenvalues --   -0.36252  -0.35814  -0.35614  -0.35557  -0.35399
 Alpha  occ. eigenvalues --   -0.34815  -0.32521  -0.28839  -0.23132  -0.21527
 Alpha  occ. eigenvalues --   -0.21521  -0.21282
 Alpha virt. eigenvalues --    0.00202   0.01992   0.04397   0.04490   0.05081
 Alpha virt. eigenvalues --    0.05840   0.06076   0.06881   0.07696   0.08699
 Alpha virt. eigenvalues --    0.09676   0.09996   0.10197   0.10533   0.11411
 Alpha virt. eigenvalues --    0.12691   0.12906   0.13082   0.14312   0.15164
 Alpha virt. eigenvalues --    0.16040   0.17046   0.18157   0.18933   0.20564
 Alpha virt. eigenvalues --    0.22064   0.22534   0.23820   0.24818   0.25762
 Alpha virt. eigenvalues --    0.26870   0.27777   0.28175   0.28737   0.29911
 Alpha virt. eigenvalues --    0.30712   0.32528   0.33477   0.34191   0.34796
 Alpha virt. eigenvalues --    0.37146   0.37748   0.38211   0.38310   0.39139
 Alpha virt. eigenvalues --    0.40189   0.40616   0.40905   0.42606   0.42863
 Alpha virt. eigenvalues --    0.43309   0.43700   0.43936   0.44704   0.45125
 Alpha virt. eigenvalues --    0.45724   0.46376   0.47640   0.47863   0.48928
 Alpha virt. eigenvalues --    0.49724   0.50431   0.50980   0.52045   0.56963
 Alpha virt. eigenvalues --    0.61370   0.62106   0.64061   0.65083   0.67213
 Alpha virt. eigenvalues --    0.68718   0.71900   0.73024   0.76961   0.80108
 Alpha virt. eigenvalues --    0.80189   0.83152   0.87416   0.87604   0.88205
 Alpha virt. eigenvalues --    1.01369   1.01782   1.12271   1.15703   1.17462
 Alpha virt. eigenvalues --    1.18378   1.18505   1.18826   1.19689   1.20053
 Alpha virt. eigenvalues --    1.21689   1.23014   1.23988   1.25707   1.26121
 Alpha virt. eigenvalues --    1.27015   1.29047   1.29259   1.29506   1.29953
 Alpha virt. eigenvalues --    1.30774   1.31978   1.34894   1.35936   1.37821
 Alpha virt. eigenvalues --    1.39618   1.43306   1.43923   1.44729   1.45675
 Alpha virt. eigenvalues --    1.46518   1.47403   1.51505   1.53407   1.56156
 Alpha virt. eigenvalues --    1.57653   1.59574   1.60196   1.65710   1.66669
 Alpha virt. eigenvalues --    1.67284   1.67967   1.68752   1.69194   1.71404
 Alpha virt. eigenvalues --    1.71420   1.71928   1.72191   1.72534   1.72903
 Alpha virt. eigenvalues --    1.73342   1.74723   1.75015   1.75635   1.76319
 Alpha virt. eigenvalues --    1.77572   1.80095   1.84383   1.87456   1.88569
 Alpha virt. eigenvalues --    1.89363   1.90474   1.92105   1.93115   1.97948
 Alpha virt. eigenvalues --    2.00659   2.01194   2.01963   2.06836   2.12242
 Alpha virt. eigenvalues --    2.13390   2.13978   2.16883   2.20732   2.21137
 Alpha virt. eigenvalues --    2.25686   2.26518   2.26876   2.27455   2.28012
 Alpha virt. eigenvalues --    2.29599   2.30371   2.31447   2.32659   2.33913
 Alpha virt. eigenvalues --    2.34359   2.37668   2.39340   2.40397   2.41726
 Alpha virt. eigenvalues --    2.42359   2.46447   2.48498   2.53188   2.54377
 Alpha virt. eigenvalues --    2.55198   2.56852   2.58617   2.61946   2.62162
 Alpha virt. eigenvalues --    2.63787   2.64223   2.65364   2.66731   2.68300
 Alpha virt. eigenvalues --    2.70325   2.71745   2.72115   2.82710   2.85540
 Alpha virt. eigenvalues --    2.88018   2.89816   2.91016   2.93778   2.95660
 Alpha virt. eigenvalues --    2.97935   3.00197   3.05666   3.06681   3.09499
 Alpha virt. eigenvalues --    3.10010   3.12702   3.16280   3.19962   3.21341
 Alpha virt. eigenvalues --    3.21871   3.22181   3.25701   3.26103   3.27053
 Alpha virt. eigenvalues --    3.29578   3.31558   3.34639   3.37907   3.58006
 Alpha virt. eigenvalues --    3.58562   3.59865   3.81719   3.99529  21.64682
 Alpha virt. eigenvalues --   21.76339  21.82060  21.82673  21.84137  21.85531
 Alpha virt. eigenvalues --   24.12639  31.67335  43.20992
          Condensed to atoms (all electrons):
               1          2          3          4          5          6
     1  C    4.919347   0.233848  -0.103034   0.010700  -0.000707  -0.000034
     2  O    0.233848   8.069399   0.236264  -0.050959   0.008410  -0.000126
     3  C   -0.103034   0.236264   5.223453   0.013603   0.007420   0.013982
     4  C    0.010700  -0.050959   0.013603   5.818789   0.075772  -0.098661
     5  N   -0.000707   0.008410   0.007420   0.075772   6.589417   0.247881
     6  C   -0.000034  -0.000126   0.013982  -0.098661   0.247881   5.210568
     7  C   -0.002381  -0.000830   0.003502  -0.100657   0.248425  -0.095469
     8  C    0.000632   0.000594  -0.001257  -0.067966   0.210366  -0.101379
     9  Cl  -0.000000   0.000000  -0.000040   0.000219   0.003662  -0.035321
    10  H    0.387983  -0.050431  -0.006113   0.020682  -0.002423   0.000272
    11  H    0.407467  -0.045084  -0.005213  -0.008533   0.000512  -0.000022
    12  H    0.387654  -0.031248   0.009683  -0.000674   0.000030  -0.000003
    13  H    0.011156  -0.034271   0.379302  -0.019619  -0.007973  -0.001145
    14  H   -0.015388  -0.041813   0.456169  -0.105995   0.012491  -0.000205
    15  H   -0.000557   0.011628  -0.008213   0.352912  -0.005745  -0.003515
    16  H    0.002149   0.004022  -0.041329   0.398733  -0.017767  -0.006983
    17  H   -0.000024  -0.000058   0.000896  -0.005697  -0.019246   0.385156
    18  H   -0.000002  -0.000035   0.000265  -0.011055  -0.017745   0.387653
    19  H    0.000004   0.000019  -0.000621   0.007861  -0.018873   0.349211
    20  H    0.000081  -0.000205  -0.001359  -0.005142  -0.019142   0.009996
    21  H    0.000010  -0.000015   0.000710   0.008218  -0.020395  -0.004472
    22  H    0.000362   0.000023  -0.003198  -0.002442  -0.019426  -0.005171
    23  H   -0.000032   0.000073  -0.004984  -0.002155  -0.017326  -0.004316
    24  H   -0.000037   0.000021   0.010080  -0.019150  -0.015924   0.008865
    25  H    0.000007  -0.000005  -0.000014   0.009180  -0.019935  -0.002062
               7          8          9         10         11         12
     1  C   -0.002381   0.000632  -0.000000   0.387983   0.407467   0.387654
     2  O   -0.000830   0.000594   0.000000  -0.050431  -0.045084  -0.031248
     3  C    0.003502  -0.001257  -0.000040  -0.006113  -0.005213   0.009683
     4  C   -0.100657  -0.067966   0.000219   0.020682  -0.008533  -0.000674
     5  N    0.248425   0.210366   0.003662  -0.002423   0.000512   0.000030
     6  C   -0.095469  -0.101379  -0.035321   0.000272  -0.000022  -0.000003
     7  C    5.234605  -0.116524  -0.035903  -0.000610   0.000469   0.000020
     8  C   -0.116524   5.275973  -0.035225  -0.000152  -0.000024   0.000001
     9  Cl  -0.035903  -0.035225  17.837194   0.000000  -0.000000   0.000000
    10  H   -0.000610  -0.000152   0.000000   0.603351  -0.054700  -0.026050
    11  H    0.000469  -0.000024  -0.000000  -0.054700   0.573963  -0.021905
    12  H    0.000020   0.000001   0.000000  -0.026050  -0.021905   0.524663
    13  H   -0.001977   0.013294   0.000003  -0.000869  -0.000171  -0.000205
    14  H    0.012366  -0.010947   0.000008  -0.001799   0.012457   0.000084
    15  H    0.012245  -0.015391   0.000006   0.000001   0.000295  -0.000010
    16  H   -0.015985   0.012861  -0.000005  -0.007564   0.000674   0.000145
    17  H   -0.005302   0.009671   0.000776   0.000046  -0.000001   0.000000
    18  H    0.009683  -0.004254   0.000625   0.000008  -0.000001  -0.000000
    19  H   -0.003965  -0.005070   0.046126  -0.000012   0.000001   0.000000
    20  H    0.384154  -0.005608   0.000680   0.000187   0.000064  -0.000014
    21  H    0.346632  -0.001188   0.046837  -0.000016   0.000013  -0.000000
    22  H    0.384155   0.010535   0.000656   0.000211  -0.000074   0.000000
    23  H    0.009748   0.379596   0.000709  -0.000002   0.000003   0.000000
    24  H   -0.001841   0.386465   0.000448   0.000009   0.000010   0.000001
    25  H   -0.001909   0.344184   0.046798  -0.000001   0.000001  -0.000000
              13         14         15         16         17         18
     1  C    0.011156  -0.015388  -0.000557   0.002149  -0.000024  -0.000002
     2  O   -0.034271  -0.041813   0.011628   0.004022  -0.000058  -0.000035
     3  C    0.379302   0.456169  -0.008213  -0.041329   0.000896   0.000265
     4  C   -0.019619  -0.105995   0.352912   0.398733  -0.005697  -0.011055
     5  N   -0.007973   0.012491  -0.005745  -0.017767  -0.019246  -0.017745
     6  C   -0.001145  -0.000205  -0.003515  -0.006983   0.385156   0.387653
     7  C   -0.001977   0.012366   0.012245  -0.015985  -0.005302   0.009683
     8  C    0.013294  -0.010947  -0.015391   0.012861   0.009671  -0.004254
     9  Cl   0.000003   0.000008   0.000006  -0.000005   0.000776   0.000625
    10  H   -0.000869  -0.001799   0.000001  -0.007564   0.000046   0.000008
    11  H   -0.000171   0.012457   0.000295   0.000674  -0.000001  -0.000001
    12  H   -0.000205   0.000084  -0.000010   0.000145   0.000000  -0.000000
    13  H    0.513073  -0.031295  -0.007195   0.004676   0.000012   0.000053
    14  H   -0.031295   0.532500   0.006276  -0.003231  -0.000020  -0.000017
    15  H   -0.007195   0.006276   0.466088  -0.015560  -0.001671   0.004946
    16  H    0.004676  -0.003231  -0.015560   0.458238   0.004211  -0.000451
    17  H    0.000012  -0.000020  -0.001671   0.004211   0.479559  -0.020961
    18  H    0.000053  -0.000017   0.004946  -0.000451  -0.020961   0.477682
    19  H    0.000027   0.000014   0.000285   0.000063  -0.018674  -0.018446
    20  H    0.000385   0.002317  -0.000034   0.000080   0.000054  -0.000415
    21  H   -0.000035   0.000076  -0.000298  -0.000122  -0.000493   0.000411
    22  H    0.000050  -0.000705   0.000060   0.003159   0.002460   0.000006
    23  H   -0.000945   0.000720   0.002816   0.000017  -0.000037   0.002497
    24  H   -0.005485   0.000833   0.001017  -0.000181  -0.000369   0.000029
    25  H   -0.000035   0.000192   0.000031  -0.000449   0.000490  -0.000763
              19         20         21         22         23         24
     1  C    0.000004   0.000081   0.000010   0.000362  -0.000032  -0.000037
     2  O    0.000019  -0.000205  -0.000015   0.000023   0.000073   0.000021
     3  C   -0.000621  -0.001359   0.000710  -0.003198  -0.004984   0.010080
     4  C    0.007861  -0.005142   0.008218  -0.002442  -0.002155  -0.019150
     5  N   -0.018873  -0.019142  -0.020395  -0.019426  -0.017326  -0.015924
     6  C    0.349211   0.009996  -0.004472  -0.005171  -0.004316   0.008865
     7  C   -0.003965   0.384154   0.346632   0.384155   0.009748  -0.001841
     8  C   -0.005070  -0.005608  -0.001188   0.010535   0.379596   0.386465
     9  Cl   0.046126   0.000680   0.046837   0.000656   0.000709   0.000448
    10  H   -0.000012   0.000187  -0.000016   0.000211  -0.000002   0.000009
    11  H    0.000001   0.000064   0.000013  -0.000074   0.000003   0.000010
    12  H    0.000000  -0.000014  -0.000000   0.000000   0.000000   0.000001
    13  H    0.000027   0.000385  -0.000035   0.000050  -0.000945  -0.005485
    14  H    0.000014   0.002317   0.000076  -0.000705   0.000720   0.000833
    15  H    0.000285  -0.000034  -0.000298   0.000060   0.002816   0.001017
    16  H    0.000063   0.000080  -0.000122   0.003159   0.000017  -0.000181
    17  H   -0.018674   0.000054  -0.000493   0.002460  -0.000037  -0.000369
    18  H   -0.018446  -0.000415   0.000411   0.000006   0.002497   0.000029
    19  H    0.518360   0.000496  -0.001851  -0.000478  -0.000423   0.000403
    20  H    0.000496   0.477626  -0.017493  -0.019691   0.000101   0.002238
    21  H   -0.001851  -0.017493   0.517939  -0.017907   0.000348  -0.000817
    22  H   -0.000478  -0.019691  -0.017907   0.476433  -0.000393  -0.000042
    23  H   -0.000423   0.000101   0.000348  -0.000393   0.473813  -0.019767
    24  H    0.000403   0.002238  -0.000817  -0.000042  -0.019767   0.467633
    25  H   -0.001863  -0.000815  -0.002433   0.000301  -0.016740  -0.017488
              25
     1  C    0.000007
     2  O   -0.000005
     3  C   -0.000014
     4  C    0.009180
     5  N   -0.019935
     6  C   -0.002062
     7  C   -0.001909
     8  C    0.344184
     9  Cl   0.046798
    10  H   -0.000001
    11  H    0.000001
    12  H   -0.000000
    13  H   -0.000035
    14  H    0.000192
    15  H    0.000031
    16  H   -0.000449
    17  H    0.000490
    18  H   -0.000763
    19  H   -0.001863
    20  H   -0.000815
    21  H   -0.002433
    22  H    0.000301
    23  H   -0.016740
    24  H   -0.017488
    25  H    0.515904
 Mulliken charges:
               1
     1  C   -0.239204
     2  O   -0.309220
     3  C   -0.179951
     4  C   -0.217966
     5  N   -0.201760
     6  C   -0.254698
     7  C   -0.262651
     8  C   -0.279188
     9  Cl  -0.878252
    10  H    0.137993
    11  H    0.139799
    12  H    0.157829
    13  H    0.189188
    14  H    0.174909
    15  H    0.199585
    16  H    0.220600
    17  H    0.189221
    18  H    0.190287
    19  H    0.147404
    20  H    0.191461
    21  H    0.146344
    22  H    0.191116
    23  H    0.196678
    24  H    0.203052
    25  H    0.147425
 Sum of Mulliken charges =  -0.00000
 Mulliken charges with hydrogens summed into heavy atoms:
               1
     1  C    0.196416
     2  O   -0.309220
     3  C    0.184145
     4  C    0.202219
     5  N   -0.201760
     6  C    0.272214
     7  C    0.266269
     8  C    0.267967
     9  Cl  -0.878252
 Electronic spatial extent (au):  <R**2>=           2698.3079
 Charge=              0.0000 electrons
 Dipole moment (field-independent basis, Debye):
    X=             16.3553    Y=              0.8626    Z=             -2.3008  Tot=             16.5388
 Quadrupole moment (field-independent basis, Debye-Ang):
   XX=           -136.3161   YY=            -60.9194   ZZ=            -60.7281
   XY=            -13.5607   XZ=              3.9196   YZ=              0.3990
 Traceless Quadrupole moment (field-independent basis, Debye-Ang):
   XX=            -50.3282   YY=             25.0685   ZZ=             25.2598
   XY=            -13.5607   XZ=              3.9196   YZ=              0.3990
 Octapole moment (field-independent basis, Debye-Ang**2):
  XXX=            321.6379  YYY=              8.2296  ZZZ=             -5.7085  XYY=             14.6838
  XXY=             -1.7528  XXZ=            -28.8080  XZZ=             12.5566  YZZ=              2.7103
  YYZ=             -1.2754  XYZ=             -1.2427
 Hexadecapole moment (field-independent basis, Debye-Ang**3):
 XXXX=          -4209.5189 YYYY=           -300.6427 ZZZZ=           -280.5566 XXXY=           -222.2320
 XXXZ=             43.8596 YYYX=             -9.5633 YYYZ=             -0.8855 ZZZX=             15.3303
 ZZZY=              2.1502 XXYY=           -570.5303 XXZZ=           -566.8991 YYZZ=            -94.2248
 XXYZ=              5.2218 YYXZ=              5.2272 ZZXY=             -7.1592
 N-N= 5.600606090252D+02 E-N=-3.069473336087D+03  KE= 8.253316059267D+02
 Unable to Open any file for archive entry.
 1\1\GINC-TCN981\SP\RBP86\TZVP\C6H16Cl1N1O1\ELENAA\21-Aug-2021\0\\# BP8
 6/TZVP SCRF=COSMORS geom=CHECKPOINT guess=CHECKPOINT\\COSMO-file for #
 MSIGGUSMCUUDGY-UHFFFAOYSA-M\\0,1\C,0,0.6783470018,-2.8484208627,0.3883
 517116\O,0,-0.3754482844,-2.4849170971,1.2968166996\C,0,-1.1224344724,
 -1.3441545708,0.8707520382\C,0,-0.3958506231,-0.070867273,1.3350941398
 \N,0,-0.9359492698,1.2360508016,0.771781682\C,0,-0.2242237894,2.381427
 706,1.4592840727\C,0,-0.6767051858,1.340048178,-0.7142509434\C,0,-2.41
 96145811,1.368432013,1.0286993246\Cl,0,-2.2191821141,4.6364683369,-0.5
 669933087\H,0,1.4362283002,-2.0522205842,0.2802248751\H,0,0.2724561668
 ,-3.0933352836,-0.6096713926\H,0,1.1612611861,-3.737566393,0.812529313
 6\H,0,-2.108005082,-1.4242078142,1.3488812929\H,0,-1.2658904826,-1.357
 0330313,-0.2244844119\H,0,-0.4568169449,0.0081047023,2.428134562\H,0,0
 .6625050562,-0.1110396205,1.0472086498\H,0,0.852627034,2.2777386623,1.
 2835217879\H,0,-0.4398716539,2.3313181026,2.5325222167\H,0,-0.60727905
 74,3.316598167,1.0262958664\H,0,-1.2114659131,0.5379765649,-1.23223435
 72\H,0,-1.047472639,2.3215913841,-1.0425114603\H,0,0.4018043242,1.2493
 58358,-0.8857220225\H,0,-2.5996557237,1.2458470605,2.1027837504\H,0,-2
 .9534722819,0.5986705354,0.4615534421\H,0,-2.7222491098,2.3684451488,0
 .686951601\\Version=ES64L-G16RevC.01\State=1-A\HF=-828.6280059\RMSD=7.
 021e-09\Dipole=2.4700777,-5.7679604,1.7229889\Quadrupole=15.4627191,-2
 9.0918707,13.6291517,13.0955239,-5.3687642,18.0109018\PG=C01 [X(C6H16C
 l1N1O1)]\\@
 The archive entry for this job was punched.


 ONLY A FOOL KNOWS EVERYTHING.

               -- THE CHEMIST ANALYST, SEPTEMBER 1946
 Job cpu time:       0 days  0 hours  6 minutes 19.3 seconds.
 Elapsed time:       0 days  0 hours  0 minutes 16.3 seconds.
 File lengths (MBytes):  RWF=     64 Int=      0 D2E=      0 Chk=     10 Scr=      1
 Normal termination of Gaussian 16 at Sat Aug 21 09:40:40 2021.
