 Entering Gaussian System, Link 0=g16
 Input=MTCFGRXMJLQNBG-UWTATZPHSA-N.gjf
 Output=MTCFGRXMJLQNBG-UWTATZPHSA-N.log
 Initial command:
 /sw/arch/RedHatEnterpriseServer7/EB_production/2019/software/Gaussian/g16.c01/l1.exe "/scratch-local/elenaa.9715238/Gau-7848.inp" -scrdir="/scratch-local/elenaa.9715238/"
 Entering Link 1 = /sw/arch/RedHatEnterpriseServer7/EB_production/2019/software/Gaussian/g16.c01/l1.exe PID=      7849.
  
 Copyright (c) 1988-2019, Gaussian, Inc.  All Rights Reserved.
  
 This is part of the Gaussian(R) 16 program.  It is based on
 the Gaussian(R) 09 system (copyright 2009, Gaussian, Inc.),
 the Gaussian(R) 03 system (copyright 2003, Gaussian, Inc.),
 the Gaussian(R) 98 system (copyright 1998, Gaussian, Inc.),
 the Gaussian(R) 94 system (copyright 1995, Gaussian, Inc.),
 the Gaussian 92(TM) system (copyright 1992, Gaussian, Inc.),
 the Gaussian 90(TM) system (copyright 1990, Gaussian, Inc.),
 the Gaussian 88(TM) system (copyright 1988, Gaussian, Inc.),
 the Gaussian 86(TM) system (copyright 1986, Carnegie Mellon
 University), and the Gaussian 82(TM) system (copyright 1983,
 Carnegie Mellon University). Gaussian is a federally registered
 trademark of Gaussian, Inc.
  
 This software contains proprietary and confidential information,
 including trade secrets, belonging to Gaussian, Inc.
  
 This software is provided under written license and may be
 used, copied, transmitted, or stored only in accord with that
 written license.
  
 The following legend is applicable only to US Government
 contracts under FAR:
  
                    RESTRICTED RIGHTS LEGEND
  
 Use, reproduction and disclosure by the US Government is
 subject to restrictions as set forth in subparagraphs (a)
 and (c) of the Commercial Computer Software - Restricted
 Rights clause in FAR 52.227-19.
  
 Gaussian, Inc.
 340 Quinnipiac St., Bldg. 40, Wallingford CT 06492
  
  
 ---------------------------------------------------------------
 Warning -- This program may not be used in any manner that
 competes with the business of Gaussian, Inc. or will provide
 assistance to any competitor of Gaussian, Inc.  The licensee
 of this program is prohibited from giving any competitor of
 Gaussian, Inc. access to this program.  By using this program,
 the user acknowledges that Gaussian, Inc. is engaged in the
 business of creating and licensing software in the field of
 computational chemistry and represents and warrants to the
 licensee that it is not a competitor of Gaussian, Inc. and that
 it will not use this program in any manner prohibited above.
 ---------------------------------------------------------------
  

 Cite this work as:
 Gaussian 16, Revision C.01,
 M. J. Frisch, G. W. Trucks, H. B. Schlegel, G. E. Scuseria, 
 M. A. Robb, J. R. Cheeseman, G. Scalmani, V. Barone, 
 G. A. Petersson, H. Nakatsuji, X. Li, M. Caricato, A. V. Marenich, 
 J. Bloino, B. G. Janesko, R. Gomperts, B. Mennucci, H. P. Hratchian, 
 J. V. Ortiz, A. F. Izmaylov, J. L. Sonnenberg, D. Williams-Young, 
 F. Ding, F. Lipparini, F. Egidi, J. Goings, B. Peng, A. Petrone, 
 T. Henderson, D. Ranasinghe, V. G. Zakrzewski, J. Gao, N. Rega, 
 G. Zheng, W. Liang, M. Hada, M. Ehara, K. Toyota, R. Fukuda, 
 J. Hasegawa, M. Ishida, T. Nakajima, Y. Honda, O. Kitao, H. Nakai, 
 T. Vreven, K. Throssell, J. A. Montgomery, Jr., J. E. Peralta, 
 F. Ogliaro, M. J. Bearpark, J. J. Heyd, E. N. Brothers, K. N. Kudin, 
 V. N. Staroverov, T. A. Keith, R. Kobayashi, J. Normand, 
 K. Raghavachari, A. P. Rendell, J. C. Burant, S. S. Iyengar, 
 J. Tomasi, M. Cossi, J. M. Millam, M. Klene, C. Adamo, R. Cammi, 
 J. W. Ochterski, R. L. Martin, K. Morokuma, O. Farkas, 
 J. B. Foresman, and D. J. Fox, Gaussian, Inc., Wallingford CT, 2019.
 
 ******************************************
 Gaussian 16:  ES64L-G16RevC.01  3-Jul-2019
                22-Feb-2021 
 ******************************************
 %chk=MTCFGRXMJLQNBG-UWTATZPHSA-N.chk
 %NProcShared=32
 Will use up to   32 processors via shared memory.
 -------------------------------------------------------------
 #P BP86/TZVP EmpiricalDispersion=GD3 SCRF=(Solvent=Water) Opt
 -------------------------------------------------------------
 1/18=20,19=15,26=3,38=1/1,3;
 2/9=110,12=2,17=6,18=5,40=1/2;
 3/5=19,7=101,11=2,25=1,30=1,70=2201,71=1,72=1,74=404,124=31/1,2,3;
 4//1;
 5/5=2,38=5,53=1/2;
 6/7=2,8=2,9=2,10=2,28=1/1;
 7//1,2,3,16;
 1/18=20,19=15,26=3/3(2);
 2/9=110/2;
 99//99;
 2/9=110/2;
 3/5=19,7=101,11=2,25=1,30=1,70=2205,71=1,72=1,74=404,124=31/1,2,3;
 4/5=5,16=3,69=1/1;
 5/5=2,38=5,53=1/2;
 7//1,2,3,16;
 1/18=20,19=15,26=3/3(-5);
 2/9=110/2;
 6/7=2,8=2,9=2,10=2,19=2,28=1/1;
 99/9=1/99;
 Leave Link    1 at Mon Feb 22 21:13:16 2021, MaxMem=           0 cpu:               1.2 elap:               0.1
 (Enter /sw/arch/RedHatEnterpriseServer7/EB_production/2019/software/Gaussian/g16.c01/l101.exe)
 -------------------------------------
 Particle #MTCFGRXMJLQNBG-UWTATZPHSA-N
 -------------------------------------
 Symbolic Z-matrix:
 Charge =  0 Multiplicity = 1
 N                     2.42487  -2.60957  -1.55248 
 C                     1.49717  -2.49376  -0.41585 
 C                     2.11703  -1.6234    0.70718 
 O                     1.20246  -1.47837   1.78933 
 C                     1.13602  -3.84322   0.07224 
 O                     2.00933  -4.62548   0.5114 
 O                    -0.15056  -4.26496   0.06282 
 H                     1.98978  -3.15928  -2.29751 
 H                     3.28519  -3.07224  -1.24673 
 H                     2.64936  -1.67818  -1.91175 
 H                     0.59915  -1.9917   -0.78385 
 H                     3.03598  -2.08295   1.08535 
 H                     2.35313  -0.62645   0.32542 
 H                     1.69253  -0.96143   2.46227 
 
 ITRead=  0  0  0  0  0  0  0  0  0  0  0  0  0  0
 MicOpt= -1 -1 -1 -1 -1 -1 -1 -1 -1 -1 -1 -1 -1 -1
 NAtoms=     14 NQM=       14 NQMF=       0 NMMI=      0 NMMIF=      0
                NMic=       0 NMicF=      0.
                    Isotopes and Nuclear Properties:
 (Nuclear quadrupole moments (NQMom) in fm**2, nuclear magnetic moments (NMagM)
  in nuclear magnetons)

  Atom         1           2           3           4           5           6           7           8           9          10
 IAtWgt=          14          12          12          16          12          16          16           1           1           1
 AtmWgt=  14.0030740  12.0000000  12.0000000  15.9949146  12.0000000  15.9949146  15.9949146   1.0078250   1.0078250   1.0078250
 NucSpn=           2           0           0           0           0           0           0           1           1           1
 AtZEff=  -0.0000000  -0.0000000  -0.0000000  -0.0000000  -0.0000000  -0.0000000  -0.0000000  -0.0000000  -0.0000000  -0.0000000
 NQMom=    2.0440000   0.0000000   0.0000000   0.0000000   0.0000000   0.0000000   0.0000000   0.0000000   0.0000000   0.0000000
 NMagM=    0.4037610   0.0000000   0.0000000   0.0000000   0.0000000   0.0000000   0.0000000   2.7928460   2.7928460   2.7928460
 AtZNuc=   7.0000000   6.0000000   6.0000000   8.0000000   6.0000000   8.0000000   8.0000000   1.0000000   1.0000000   1.0000000

  Atom        11          12          13          14
 IAtWgt=           1           1           1           1
 AtmWgt=   1.0078250   1.0078250   1.0078250   1.0078250
 NucSpn=           1           1           1           1
 AtZEff=  -0.0000000  -0.0000000  -0.0000000  -0.0000000
 NQMom=    0.0000000   0.0000000   0.0000000   0.0000000
 NMagM=    2.7928460   2.7928460   2.7928460   2.7928460
 AtZNuc=   1.0000000   1.0000000   1.0000000   1.0000000
 Leave Link  101 at Mon Feb 22 21:13:16 2021, MaxMem=   104857600 cpu:               2.9 elap:               0.1
 (Enter /sw/arch/RedHatEnterpriseServer7/EB_production/2019/software/Gaussian/g16.c01/l103.exe)

 GradGradGradGradGradGradGradGradGradGradGradGradGradGradGradGradGradGrad
 Berny optimization.
 Initialization pass.
                           ----------------------------
                           !    Initial Parameters    !
                           ! (Angstroms and Degrees)  !
 --------------------------                            --------------------------
 ! Name  Definition              Value          Derivative Info.                !
 --------------------------------------------------------------------------------
 ! R1    R(1,2)                  1.4717         estimate D2E/DX2                !
 ! R2    R(1,8)                  1.023          estimate D2E/DX2                !
 ! R3    R(1,9)                  1.0236         estimate D2E/DX2                !
 ! R4    R(1,10)                 1.0232         estimate D2E/DX2                !
 ! R5    R(2,3)                  1.5501         estimate D2E/DX2                !
 ! R6    R(2,5)                  1.4798         estimate D2E/DX2                !
 ! R7    R(2,11)                 1.0927         estimate D2E/DX2                !
 ! R8    R(3,4)                  1.4243         estimate D2E/DX2                !
 ! R9    R(3,12)                 1.0948         estimate D2E/DX2                !
 ! R10   R(3,13)                 1.0933         estimate D2E/DX2                !
 ! R11   R(4,14)                 0.9799         estimate D2E/DX2                !
 ! R12   R(5,6)                  1.252          estimate D2E/DX2                !
 ! R13   R(5,7)                  1.354          estimate D2E/DX2                !
 ! A1    A(2,1,8)              109.6727         estimate D2E/DX2                !
 ! A2    A(2,1,9)              109.5535         estimate D2E/DX2                !
 ! A3    A(2,1,10)             109.7455         estimate D2E/DX2                !
 ! A4    A(8,1,9)              109.3977         estimate D2E/DX2                !
 ! A5    A(8,1,10)             109.0701         estimate D2E/DX2                !
 ! A6    A(9,1,10)             109.386          estimate D2E/DX2                !
 ! A7    A(1,2,3)              110.5876         estimate D2E/DX2                !
 ! A8    A(1,2,5)              109.6835         estimate D2E/DX2                !
 ! A9    A(1,2,11)             107.104          estimate D2E/DX2                !
 ! A10   A(3,2,5)              111.7563         estimate D2E/DX2                !
 ! A11   A(3,2,11)             108.3395         estimate D2E/DX2                !
 ! A12   A(5,2,11)             109.2399         estimate D2E/DX2                !
 ! A13   A(2,3,4)              110.5393         estimate D2E/DX2                !
 ! A14   A(2,3,12)             110.4995         estimate D2E/DX2                !
 ! A15   A(2,3,13)             110.2037         estimate D2E/DX2                !
 ! A16   A(4,3,12)             108.6191         estimate D2E/DX2                !
 ! A17   A(4,3,13)             108.1262         estimate D2E/DX2                !
 ! A18   A(12,3,13)            108.7895         estimate D2E/DX2                !
 ! A19   A(3,4,14)             104.7352         estimate D2E/DX2                !
 ! A20   A(2,5,6)              121.0145         estimate D2E/DX2                !
 ! A21   A(2,5,7)              120.9087         estimate D2E/DX2                !
 ! A22   A(6,5,7)              118.076          estimate D2E/DX2                !
 ! D1    D(8,1,2,3)           -178.0814         estimate D2E/DX2                !
 ! D2    D(8,1,2,5)             58.2154         estimate D2E/DX2                !
 ! D3    D(8,1,2,11)           -60.2253         estimate D2E/DX2                !
 ! D4    D(9,1,2,3)             61.8341         estimate D2E/DX2                !
 ! D5    D(9,1,2,5)            -61.8691         estimate D2E/DX2                !
 ! D6    D(9,1,2,11)           179.6903         estimate D2E/DX2                !
 ! D7    D(10,1,2,3)           -58.2809         estimate D2E/DX2                !
 ! D8    D(10,1,2,5)           178.0159         estimate D2E/DX2                !
 ! D9    D(10,1,2,11)           59.5753         estimate D2E/DX2                !
 ! D10   D(1,2,3,4)            178.2367         estimate D2E/DX2                !
 ! D11   D(1,2,3,12)           -61.4932         estimate D2E/DX2                !
 ! D12   D(1,2,3,13)            58.7717         estimate D2E/DX2                !
 ! D13   D(5,2,3,4)            -59.2629         estimate D2E/DX2                !
 ! D14   D(5,2,3,12)            61.0072         estimate D2E/DX2                !
 ! D15   D(5,2,3,13)          -178.7279         estimate D2E/DX2                !
 ! D16   D(11,2,3,4)            61.1397         estimate D2E/DX2                !
 ! D17   D(11,2,3,12)         -178.5902         estimate D2E/DX2                !
 ! D18   D(11,2,3,13)          -58.3252         estimate D2E/DX2                !
 ! D19   D(1,2,5,6)             60.9768         estimate D2E/DX2                !
 ! D20   D(1,2,5,7)           -119.359          estimate D2E/DX2                !
 ! D21   D(3,2,5,6)            -62.0388         estimate D2E/DX2                !
 ! D22   D(3,2,5,7)            117.6254         estimate D2E/DX2                !
 ! D23   D(11,2,5,6)           178.0862         estimate D2E/DX2                !
 ! D24   D(11,2,5,7)            -2.2496         estimate D2E/DX2                !
 ! D25   D(2,3,4,14)           177.068          estimate D2E/DX2                !
 ! D26   D(12,3,4,14)           55.6785         estimate D2E/DX2                !
 ! D27   D(13,3,4,14)          -62.2208         estimate D2E/DX2                !
 --------------------------------------------------------------------------------
 Trust Radius=3.00D-01 FncErr=1.00D-07 GrdErr=1.00D-06 EigMax=2.50D+02 EigMin=1.00D-04
 Number of steps in this run=     72 maximum allowed number of steps=    100.
 GradGradGradGradGradGradGradGradGradGradGradGradGradGradGradGradGradGrad

 Leave Link  103 at Mon Feb 22 21:13:16 2021, MaxMem=   104857600 cpu:               0.4 elap:               0.0
 (Enter /sw/arch/RedHatEnterpriseServer7/EB_production/2019/software/Gaussian/g16.c01/l202.exe)
                          Input orientation:                          
 ---------------------------------------------------------------------
 Center     Atomic      Atomic             Coordinates (Angstroms)
 Number     Number       Type             X           Y           Z
 ---------------------------------------------------------------------
      1          7           0        2.424870   -2.609570   -1.552480
      2          6           0        1.497170   -2.493760   -0.415850
      3          6           0        2.117030   -1.623400    0.707180
      4          8           0        1.202460   -1.478370    1.789330
      5          6           0        1.136020   -3.843220    0.072240
      6          8           0        2.009330   -4.625480    0.511400
      7          8           0       -0.150560   -4.264960    0.062820
      8          1           0        1.989780   -3.159280   -2.297510
      9          1           0        3.285190   -3.072240   -1.246730
     10          1           0        2.649360   -1.678180   -1.911750
     11          1           0        0.599150   -1.991700   -0.783850
     12          1           0        3.035980   -2.082950    1.085350
     13          1           0        2.353130   -0.626450    0.325420
     14          1           0        1.692530   -0.961430    2.462270
 ---------------------------------------------------------------------
                    Distance matrix (angstroms):
                    1          2          3          4          5
     1  N    0.000000
     2  C    1.471722   0.000000
     3  C    2.484625   1.550145   0.000000
     4  O    3.733844   2.445545   1.424261   0.000000
     5  C    2.413036   1.479765   2.508611   2.923239   0.000000
     6  O    2.914819   2.380406   3.010384   3.491195   1.251983
     7  O    3.461553   2.466027   3.540481   3.546348   1.353972
     8  H    1.023012   2.055779   3.376875   4.488607   2.610057
     9  H    1.023571   2.054755   2.698425   4.011963   2.636859
    10  H    1.023210   2.056801   2.673045   3.978874   3.303606
    11  H    2.075044   1.092670   2.159346   2.692350   2.109324
    12  H    2.758429   2.188676   1.094837   2.054970   2.781149
    13  H    2.732109   2.183803   1.093340   2.047643   3.448632
    14  H    4.401239   3.266462   1.923212   0.979920   3.785058
                    6          7          8          9         10
     6  O    0.000000
     7  O    2.235246   0.000000
     8  H    3.168612   3.372646   0.000000
     9  H    2.670467   3.865473   1.670270   0.000000
    10  H    3.868833   4.293007   1.666587   1.670310   0.000000
    11  H    3.256237   2.539021   2.363950   2.932002   2.360893
    12  H    2.801408   3.995094   3.700914   2.545466   3.048921
    13  H    4.018088   4.424497   3.664289   3.053241   2.489743
    14  H    4.163114   4.479693   5.251134   4.555081   4.534458
                   11         12         13         14
    11  H    0.000000
    12  H    3.072519   0.000000
    13  H    2.484116   1.779092   0.000000
    14  H    3.576902   2.226786   2.261577   0.000000
 Stoichiometry    C3H7NO3
 Framework group  C1[X(C3H7NO3)]
 Deg. of freedom    36
 Full point group                 C1      NOp   1
 Largest Abelian subgroup         C1      NOp   1
 Largest concise Abelian subgroup C1      NOp   1
                         Standard orientation:                         
 ---------------------------------------------------------------------
 Center     Atomic      Atomic             Coordinates (Angstroms)
 Number     Number       Type             X           Y           Z
 ---------------------------------------------------------------------
      1          7           0        0.232086    1.919427   -0.132684
      2          6           0       -0.127049    0.523975   -0.432187
      3          6           0       -1.495692    0.165384    0.201200
      4          8           0       -1.861316   -1.172365   -0.123252
      5          6           0        0.947626   -0.378859    0.036499
      6          8           0        1.263299   -0.432087    1.246863
      7          8           0        1.613603   -1.176622   -0.831424
      8          1           0        1.120932    2.150607   -0.583308
      9          1           0        0.322682    2.040124    0.879700
     10          1           0       -0.494915    2.546900   -0.485820
     11          1           0       -0.218523    0.441614   -1.517902
     12          1           0       -1.450675    0.260941    1.290929
     13          1           0       -2.274069    0.832473   -0.178950
     14          1           0       -2.704035   -1.323050    0.353574
 ---------------------------------------------------------------------
 Rotational constants (GHZ):           3.0400563           2.2766811           1.6901497
 Leave Link  202 at Mon Feb 22 21:13:16 2021, MaxMem=   104857600 cpu:               0.7 elap:               0.1
 (Enter /sw/arch/RedHatEnterpriseServer7/EB_production/2019/software/Gaussian/g16.c01/l301.exe)
 Standard basis: TZVP (5D, 7F)
 Ernie: Thresh=  0.10000D-02 Tol=  0.10000D-05 Strict=F.
 There are   182 symmetry adapted cartesian basis functions of A   symmetry.
 There are   175 symmetry adapted basis functions of A   symmetry.
   175 basis functions,   301 primitive gaussians,   182 cartesian basis functions
    28 alpha electrons       28 beta electrons
       nuclear repulsion energy       321.4565529220 Hartrees.
 IExCor=  404 DFT=T Ex=B Corr=P86 ExCW=0 ScaHFX=  0.000000
 ScaDFX=  1.000000  1.000000  1.000000  1.000000 ScalE2=  1.000000  1.000000
 IRadAn=      5 IRanWt=     -1 IRanGd=            0 ICorTp=0 IEmpDi=131
 NAtoms=   14 NActive=   14 NUniq=   14 SFac= 1.00D+00 NAtFMM=   60 NAOKFM=F Big=F
 Integral buffers will be    131072 words long.
 Raffenetti 2 integral format.
 Two-electron integral symmetry is turned on.
 R6Disp:  Grimme-D3 Dispersion energy=       -0.0120522771 Hartrees.
 Nuclear repulsion after empirical dispersion term =      321.4445006449 Hartrees.
 ------------------------------------------------------------------------------
 Polarizable Continuum Model (PCM)
 =================================
 Model                : PCM.
 Atomic radii         : UFF (Universal Force Field).
 Polarization charges : Total charges.
 Charge compensation  : None.
 Solution method      : On-the-fly selection.
 Cavity type          : Scaled VdW (van der Waals Surface) (Alpha=1.100).
 Cavity algorithm     : GePol (No added spheres)
                        Default sphere list used, NSphG=   14.
                        Lebedev-Laikov grids with approx.  5.0 points / Ang**2.
                        Smoothing algorithm: York/Karplus (Gamma=1.0000).
                        Polarization charges: spherical gaussians, with
                                              point-specific exponents (IZeta= 3).
                        Self-potential: point-specific (ISelfS= 7).
                        Self-field    : sphere-specific E.n sum rule (ISelfD= 2).
 1st derivatives      : Analytical E(r).r(x)/FMM algorithm (CHGder, D1EAlg=3).
                        Cavity 1st derivative terms included.
 Solvent              : Water, Eps=  78.355300 Eps(inf)=   1.777849
 ------------------------------------------------------------------------------
 Spheres list:
 ISph  on   Nord     Re0    Alpha      Xe            Ye            Ze
    1   N      1    1.8300  1.100      0.232086      1.919427     -0.132684
    2   C      2    1.9255  1.100     -0.127049      0.523975     -0.432187
    3   C      3    1.9255  1.100     -1.495692      0.165384      0.201200
    4   O      4    1.7500  1.100     -1.861316     -1.172365     -0.123252
    5   C      5    1.9255  1.100      0.947626     -0.378859      0.036499
    6   O      6    1.7500  1.100      1.263299     -0.432087      1.246863
    7   O      7    1.7500  1.100      1.613603     -1.176622     -0.831424
    8   H      8    1.4430  1.100      1.120932      2.150607     -0.583308
    9   H      9    1.4430  1.100      0.322682      2.040124      0.879700
   10   H     10    1.4430  1.100     -0.494915      2.546900     -0.485820
   11   H     11    1.4430  1.100     -0.218523      0.441614     -1.517902
   12   H     12    1.4430  1.100     -1.450675      0.260941      1.290929
   13   H     13    1.4430  1.100     -2.274069      0.832473     -0.178950
   14   H     14    1.4430  1.100     -2.704035     -1.323050      0.353574
 ------------------------------------------------------------------------------
 GePol: Number of generator spheres                  =      14
 GePol: Total number of spheres                      =      14
 GePol: Number of exposed spheres                    =      14 (100.00%)
 GePol: Number of points                             =    1220
 GePol: Average weight of points                     =       0.13
 GePol: Minimum weight of points                     =   0.75D-09
 GePol: Maximum weight of points                     =    0.20577
 GePol: Number of points with low weight             =      67
 GePol: Fraction of low-weight points (<1% of avg)   =       5.49%
 GePol: Cavity surface area                          =    163.619 Ang**2
 GePol: Cavity volume                                =    151.637 Ang**3
 Leave Link  301 at Mon Feb 22 21:13:16 2021, MaxMem=   104857600 cpu:               1.9 elap:               0.1
 (Enter /sw/arch/RedHatEnterpriseServer7/EB_production/2019/software/Gaussian/g16.c01/l302.exe)
 NPDir=0 NMtPBC=     1 NCelOv=     1 NCel=       1 NClECP=     1 NCelD=      1
         NCelK=      1 NCelE2=     1 NClLst=     1 CellRange=     0.0.
 One-electron integrals computed using PRISM.
 One-electron integral symmetry used in STVInt
 PrsmSu:  requested number of processors reduced to:  29 ShMem   1 Linda.
 NBasis=   175 RedAO= T EigKep=  2.83D-04  NBF=   175
 NBsUse=   175 1.00D-06 EigRej= -1.00D+00 NBFU=   175
 Precomputing XC quadrature grid using
 IXCGrd= 4 IRadAn=           5 IRanWt=          -1 IRanGd=           0 AccXCQ= 0.00D+00.
 Generated NRdTot=       0 NPtTot=           0 NUsed=           0 NTot=          32
 NSgBfM=   181   181   181   181   181 MxSgAt=    14 MxSgA2=    14.
 Leave Link  302 at Mon Feb 22 21:13:16 2021, MaxMem=   104857600 cpu:               5.4 elap:               0.2
 (Enter /sw/arch/RedHatEnterpriseServer7/EB_production/2019/software/Gaussian/g16.c01/l303.exe)
 DipDrv:  MaxL=1.
 Leave Link  303 at Mon Feb 22 21:13:17 2021, MaxMem=   104857600 cpu:               2.0 elap:               0.1
 (Enter /sw/arch/RedHatEnterpriseServer7/EB_production/2019/software/Gaussian/g16.c01/l401.exe)
 ExpMin= 9.52D-02 ExpMax= 2.70D+04 ExpMxC= 9.22D+02 IAcc=3 IRadAn=         5 AccDes= 0.00D+00
 Harris functional with IExCor=  404 and IRadAn=       5 diagonalized for initial guess.
 HarFok:  IExCor=  404 AccDes= 0.00D+00 IRadAn=         5 IDoV= 1 UseB2=F ITyADJ=14
 ICtDFT=  3500011 ScaDFX=  1.000000  1.000000  1.000000  1.000000
 FoFCou: FMM=F IPFlag=           0 FMFlag=      100000 FMFlg1=           0
         NFxFlg=           0 DoJE=T BraDBF=F KetDBF=T FulRan=T
         wScrn=  0.000000 ICntrl=       500 IOpCl=  0 I1Cent=   200000004 NGrid=           0
         NMat0=    1 NMatS0=      1 NMatT0=    0 NMatD0=    1 NMtDS0=    0 NMtDT0=    0
 Petite list used in FoFCou.
 Harris En= -399.235816056407    
 JPrj=0 DoOrth=F DoCkMO=F.
 Leave Link  401 at Mon Feb 22 21:13:17 2021, MaxMem=   104857600 cpu:               9.9 elap:               0.4
 (Enter /sw/arch/RedHatEnterpriseServer7/EB_production/2019/software/Gaussian/g16.c01/l502.exe)
 Integral symmetry usage will be decided dynamically.
 Closed shell SCF:
 Using DIIS extrapolation, IDIIS=  1040.
 NGot=   104857600 LenX=   104783248 LenY=   104749683
 Requested convergence on RMS density matrix=1.00D-08 within 128 cycles.
 Requested convergence on MAX density matrix=1.00D-06.
 Requested convergence on             energy=1.00D-06.
 No special actions if energy rises.
 Fock matrices will be formed incrementally for  20 cycles.

 Cycle   1  Pass 1  IDiag  1:
 FoFJK:  IHMeth= 1 ICntrl=     500 DoSepK=F KAlg= 0 I1Cent=           0 FoldK=F
 IRaf= 960000000 NMat=       1 IRICut=       1 DoRegI=T DoRafI=F ISym2E= 0 IDoP0=0 IntGTp=1.
 FoFCou: FMM=F IPFlag=           0 FMFlag=      100000 FMFlg1=           0
         NFxFlg=           0 DoJE=T BraDBF=F KetDBF=F FulRan=T
         wScrn=  0.000000 ICntrl=       500 IOpCl=  0 I1Cent=           0 NGrid=           0
         NMat0=    1 NMatS0=      1 NMatT0=    0 NMatD0=    1 NMtDS0=    0 NMtDT0=    0
 Symmetry not used in FoFCou.
 Inv3:  Mode=1 IEnd=     4465200.
 Iteration    1 A*A^-1 deviation from unit magnitude is 3.11D-15 for   1123.
 Iteration    1 A*A^-1 deviation from orthogonality  is 2.44D-15 for   1022    372.
 Iteration    1 A^-1*A deviation from unit magnitude is 3.11D-15 for   1123.
 Iteration    1 A^-1*A deviation from orthogonality  is 1.55D-15 for   1141    980.
 E= -398.884137603988    
 DIIS: error= 4.25D-02 at cycle   1 NSaved=   1.
 NSaved= 1 IEnMin= 1 EnMin= -398.884137603988     IErMin= 1 ErrMin= 4.25D-02
 ErrMax= 4.25D-02  0.00D+00 EMaxC= 1.00D-01 BMatC= 2.95D-01 BMatP= 2.95D-01
 IDIUse=3 WtCom= 5.75D-01 WtEn= 4.25D-01
 Coeff-Com:  0.100D+01
 Coeff-En:   0.100D+01
 Coeff:      0.100D+01
 Gap=    -0.001 Goal=   None    Shift=    0.000
 GapD=   -0.001 DampG=0.250 DampE=0.500 DampFc=0.2500 IDamp=-1.
 Damping current iteration by 2.50D-01
 RMSDP=3.47D-02 MaxDP=2.18D+00              OVMax= 7.84D-01

 Cycle   2  Pass 1  IDiag  1:
 RMSU=  8.65D-03    CP:  1.04D+00
 E= -398.919504698232     Delta-E=       -0.035367094244 Rises=F Damp=T
 DIIS: error= 7.55D-03 at cycle   2 NSaved=   2.
 NSaved= 2 IEnMin= 2 EnMin= -398.919504698232     IErMin= 2 ErrMin= 7.55D-03
 ErrMax= 7.55D-03  0.00D+00 EMaxC= 1.00D-01 BMatC= 2.64D-02 BMatP= 2.95D-01
 IDIUse=3 WtCom= 9.25D-01 WtEn= 7.55D-02
 Coeff-Com: -0.868D-01 0.109D+01
 Coeff-En:   0.377D+00 0.623D+00
 Coeff:     -0.518D-01 0.105D+01
 Gap=     0.004 Goal=   None    Shift=    0.000
 RMSDP=6.64D-03 MaxDP=3.70D-01 DE=-3.54D-02 OVMax= 6.04D-01

 Cycle   3  Pass 1  IDiag  1:
 RMSU=  3.85D-03    CP:  1.02D+00  3.75D-01
 E= -399.032023921488     Delta-E=       -0.112519223256 Rises=F Damp=F
 DIIS: error= 3.18D-02 at cycle   3 NSaved=   3.
 NSaved= 3 IEnMin= 3 EnMin= -399.032023921488     IErMin= 2 ErrMin= 7.55D-03
 ErrMax= 3.18D-02  0.00D+00 EMaxC= 1.00D-01 BMatC= 1.02D-01 BMatP= 2.64D-02
 IDIUse=2 WtCom= 0.00D+00 WtEn= 1.00D+00
 EnCoef did   100 forward-backward iterations
 Coeff-En:   0.793D-01 0.228D-02 0.918D+00
 Coeff:      0.793D-01 0.228D-02 0.918D+00
 Gap=     0.161 Goal=   None    Shift=    0.000
 RMSDP=2.39D-02 MaxDP=2.16D+00 DE=-1.13D-01 OVMax= 6.00D-01

 Cycle   4  Pass 1  IDiag  1:
 RMSU=  1.75D-02    CP:  1.13D+00  2.25D+00  8.36D-01
 E= -398.086684535143     Delta-E=        0.945339386345 Rises=F Damp=F
 DIIS: error= 1.03D-01 at cycle   4 NSaved=   4.
 NSaved= 4 IEnMin= 3 EnMin= -399.032023921488     IErMin= 2 ErrMin= 7.55D-03
 ErrMax= 1.03D-01  0.00D+00 EMaxC= 1.00D-01 BMatC= 1.13D+00 BMatP= 2.64D-02
 IDIUse=2 WtCom= 0.00D+00 WtEn= 1.00D+00
 Coeff-En:   0.000D+00 0.000D+00 0.867D+00 0.133D+00
 Coeff:      0.000D+00 0.000D+00 0.867D+00 0.133D+00
 Gap=     0.088 Goal=   None    Shift=    0.000
 RMSDP=1.90D-02 MaxDP=1.76D+00 DE= 9.45D-01 OVMax= 3.55D-01

 Cycle   5  Pass 1  IDiag  1:
 RMSU=  2.74D-03    CP:  1.05D+00  6.85D-01  7.57D-01  2.54D-01
 E= -399.006049106194     Delta-E=       -0.919364571051 Rises=F Damp=F
 DIIS: error= 4.19D-02 at cycle   5 NSaved=   5.
 NSaved= 5 IEnMin= 3 EnMin= -399.032023921488     IErMin= 2 ErrMin= 7.55D-03
 ErrMax= 4.19D-02  0.00D+00 EMaxC= 1.00D-01 BMatC= 1.41D-01 BMatP= 2.64D-02
 IDIUse=2 WtCom= 0.00D+00 WtEn= 1.00D+00
 Coeff-En:   0.000D+00 0.000D+00 0.546D+00 0.000D+00 0.454D+00
 Coeff:      0.000D+00 0.000D+00 0.546D+00 0.000D+00 0.454D+00
 Gap=     0.140 Goal=   None    Shift=    0.000
 RMSDP=3.39D-03 MaxDP=2.58D-01 DE=-9.19D-01 OVMax= 1.65D-01

 Cycle   6  Pass 1  IDiag  1:
 RMSU=  5.76D-04    CP:  1.04D+00  5.09D-01  8.94D-01  1.00D-01  5.90D-01
 E= -399.114127294731     Delta-E=       -0.108078188537 Rises=F Damp=F
 DIIS: error= 4.44D-03 at cycle   6 NSaved=   6.
 NSaved= 6 IEnMin= 6 EnMin= -399.114127294731     IErMin= 6 ErrMin= 4.44D-03
 ErrMax= 4.44D-03  0.00D+00 EMaxC= 1.00D-01 BMatC= 3.42D-03 BMatP= 2.64D-02
 IDIUse=3 WtCom= 9.56D-01 WtEn= 4.44D-02
 Coeff-Com: -0.147D-01 0.541D-01 0.337D+00-0.269D-01 0.341D+00 0.309D+00
 Coeff-En:   0.000D+00 0.000D+00 0.000D+00 0.000D+00 0.000D+00 0.100D+01
 Coeff:     -0.140D-01 0.517D-01 0.322D+00-0.257D-01 0.326D+00 0.340D+00
 Gap=     0.141 Goal=   None    Shift=    0.000
 RMSDP=5.05D-04 MaxDP=1.41D-02 DE=-1.08D-01 OVMax= 2.49D-02

 Cycle   7  Pass 1  IDiag  1:
 RMSU=  2.63D-04    CP:  1.03D+00  4.84D-01  8.61D-01  1.07D-01  5.69D-01
                    CP:  4.34D-01
 E= -399.116083000536     Delta-E=       -0.001955705805 Rises=F Damp=F
 DIIS: error= 3.87D-03 at cycle   7 NSaved=   7.
 NSaved= 7 IEnMin= 7 EnMin= -399.116083000536     IErMin= 7 ErrMin= 3.87D-03
 ErrMax= 3.87D-03  0.00D+00 EMaxC= 1.00D-01 BMatC= 9.35D-04 BMatP= 3.42D-03
 IDIUse=3 WtCom= 9.61D-01 WtEn= 3.87D-02
 Coeff-Com:  0.150D-01-0.249D-01 0.623D-01-0.753D-02 0.568D-01 0.339D+00
 Coeff-Com:  0.560D+00
 Coeff-En:   0.000D+00 0.000D+00 0.000D+00 0.000D+00 0.000D+00 0.246D+00
 Coeff-En:   0.754D+00
 Coeff:      0.144D-01-0.239D-01 0.599D-01-0.724D-02 0.546D-01 0.335D+00
 Coeff:      0.567D+00
 Gap=     0.139 Goal=   None    Shift=    0.000
 RMSDP=2.07D-04 MaxDP=3.93D-03 DE=-1.96D-03 OVMax= 1.10D-02

 Cycle   8  Pass 1  IDiag  1:
 RMSU=  1.23D-04    CP:  1.03D+00  4.89D-01  8.66D-01  1.04D-01  5.85D-01
                    CP:  6.21D-01  6.23D-01
 E= -399.116715395816     Delta-E=       -0.000632395280 Rises=F Damp=F
 DIIS: error= 5.81D-04 at cycle   8 NSaved=   8.
 NSaved= 8 IEnMin= 8 EnMin= -399.116715395816     IErMin= 8 ErrMin= 5.81D-04
 ErrMax= 5.81D-04  0.00D+00 EMaxC= 1.00D-01 BMatC= 9.25D-05 BMatP= 9.35D-04
 IDIUse=3 WtCom= 9.94D-01 WtEn= 5.81D-03
 Coeff-Com:  0.148D-01-0.227D-01 0.150D-01-0.242D-03-0.251D-03 0.204D+00
 Coeff-Com:  0.360D+00 0.429D+00
 Coeff-En:   0.000D+00 0.000D+00 0.000D+00 0.000D+00 0.000D+00 0.000D+00
 Coeff-En:   0.000D+00 0.100D+01
 Coeff:      0.147D-01-0.226D-01 0.149D-01-0.241D-03-0.250D-03 0.203D+00
 Coeff:      0.358D+00 0.432D+00
 Gap=     0.140 Goal=   None    Shift=    0.000
 RMSDP=7.04D-05 MaxDP=2.18D-03 DE=-6.32D-04 OVMax= 1.37D-03

 Cycle   9  Pass 1  IDiag  1:
 RMSU=  2.34D-05    CP:  1.03D+00  4.86D-01  8.68D-01  1.03D-01  5.74D-01
                    CP:  6.04D-01  6.77D-01  6.00D-01
 E= -399.116776024731     Delta-E=       -0.000060628916 Rises=F Damp=F
 DIIS: error= 3.72D-04 at cycle   9 NSaved=   9.
 NSaved= 9 IEnMin= 9 EnMin= -399.116776024731     IErMin= 9 ErrMin= 3.72D-04
 ErrMax= 3.72D-04  0.00D+00 EMaxC= 1.00D-01 BMatC= 1.42D-05 BMatP= 9.25D-05
 IDIUse=3 WtCom= 9.96D-01 WtEn= 3.72D-03
 Coeff-Com:  0.898D-02-0.114D-01 0.662D-02 0.554D-03-0.525D-02 0.849D-01
 Coeff-Com:  0.144D+00 0.211D+00 0.561D+00
 Coeff-En:   0.000D+00 0.000D+00 0.000D+00 0.000D+00 0.000D+00 0.000D+00
 Coeff-En:   0.000D+00 0.000D+00 0.100D+01
 Coeff:      0.894D-02-0.114D-01 0.660D-02 0.552D-03-0.523D-02 0.846D-01
 Coeff:      0.144D+00 0.210D+00 0.563D+00
 Gap=     0.140 Goal=   None    Shift=    0.000
 RMSDP=4.51D-05 MaxDP=4.07D-03 DE=-6.06D-05 OVMax= 1.04D-03

 Cycle  10  Pass 1  IDiag  1:
 RMSU=  1.02D-05    CP:  1.03D+00  4.83D-01  8.65D-01  1.01D-01  5.70D-01
                    CP:  6.07D-01  6.71D-01  5.85D-01  8.46D-01
 E= -399.116786710530     Delta-E=       -0.000010685799 Rises=F Damp=F
 DIIS: error= 1.13D-04 at cycle  10 NSaved=  10.
 NSaved=10 IEnMin=10 EnMin= -399.116786710530     IErMin=10 ErrMin= 1.13D-04
 ErrMax= 1.13D-04  0.00D+00 EMaxC= 1.00D-01 BMatC= 2.30D-06 BMatP= 1.42D-05
 IDIUse=3 WtCom= 9.99D-01 WtEn= 1.13D-03
 Coeff-Com:  0.323D-02-0.287D-02 0.338D-02-0.210D-03-0.109D-02 0.146D-01
 Coeff-Com:  0.271D-01 0.358D-01 0.283D+00 0.637D+00
 Coeff-En:   0.000D+00 0.000D+00 0.000D+00 0.000D+00 0.000D+00 0.000D+00
 Coeff-En:   0.000D+00 0.000D+00 0.000D+00 0.100D+01
 Coeff:      0.322D-02-0.287D-02 0.337D-02-0.210D-03-0.109D-02 0.146D-01
 Coeff:      0.271D-01 0.357D-01 0.283D+00 0.637D+00
 Gap=     0.140 Goal=   None    Shift=    0.000
 RMSDP=1.37D-05 MaxDP=9.59D-04 DE=-1.07D-05 OVMax= 3.55D-04

 Cycle  11  Pass 1  IDiag  1:
 RMSU=  3.11D-06    CP:  1.03D+00  4.82D-01  8.65D-01  1.01D-01  5.68D-01
                    CP:  6.03D-01  6.75D-01  5.79D-01  8.53D-01  8.32D-01
 E= -399.116788530817     Delta-E=       -0.000001820287 Rises=F Damp=F
 DIIS: error= 2.55D-05 at cycle  11 NSaved=  11.
 NSaved=11 IEnMin=11 EnMin= -399.116788530817     IErMin=11 ErrMin= 2.55D-05
 ErrMax= 2.55D-05  0.00D+00 EMaxC= 1.00D-01 BMatC= 1.43D-07 BMatP= 2.30D-06
 IDIUse=1 WtCom= 1.00D+00 WtEn= 0.00D+00
 Coeff-Com:  0.910D-03-0.790D-03 0.119D-02-0.150D-03 0.165D-03 0.108D-02
 Coeff-Com:  0.261D-02-0.319D-02 0.367D-01 0.261D+00 0.700D+00
 Coeff:      0.910D-03-0.790D-03 0.119D-02-0.150D-03 0.165D-03 0.108D-02
 Coeff:      0.261D-02-0.319D-02 0.367D-01 0.261D+00 0.700D+00
 Gap=     0.140 Goal=   None    Shift=    0.000
 RMSDP=3.26D-06 MaxDP=2.89D-04 DE=-1.82D-06 OVMax= 5.60D-05

 Cycle  12  Pass 1  IDiag  1:
 RMSU=  1.06D-06    CP:  1.03D+00  4.82D-01  8.65D-01  1.01D-01  5.68D-01
                    CP:  6.03D-01  6.73D-01  5.80D-01  8.56D-01  8.86D-01
                    CP:  1.04D+00
 E= -399.116788640347     Delta-E=       -0.000000109530 Rises=F Damp=F
 DIIS: error= 1.25D-05 at cycle  12 NSaved=  12.
 NSaved=12 IEnMin=12 EnMin= -399.116788640347     IErMin=12 ErrMin= 1.25D-05
 ErrMax= 1.25D-05  0.00D+00 EMaxC= 1.00D-01 BMatC= 2.46D-08 BMatP= 1.43D-07
 IDIUse=1 WtCom= 1.00D+00 WtEn= 0.00D+00
 Coeff-Com:  0.435D-04 0.150D-04 0.204D-03-0.292D-04 0.215D-03-0.202D-02
 Coeff-Com: -0.389D-02-0.921D-02-0.309D-01 0.501D-01 0.414D+00 0.582D+00
 Coeff:      0.435D-04 0.150D-04 0.204D-03-0.292D-04 0.215D-03-0.202D-02
 Coeff:     -0.389D-02-0.921D-02-0.309D-01 0.501D-01 0.414D+00 0.582D+00
 Gap=     0.141 Goal=   None    Shift=    0.000
 RMSDP=2.37D-06 MaxDP=1.92D-04 DE=-1.10D-07 OVMax= 4.39D-05

 Cycle  13  Pass 1  IDiag  1:
 RMSU=  3.12D-07    CP:  1.03D+00  4.82D-01  8.65D-01  1.01D-01  5.68D-01
                    CP:  6.02D-01  6.74D-01  5.76D-01  8.52D-01  9.27D-01
                    CP:  1.10D+00  7.96D-01
 E= -399.116788661080     Delta-E=       -0.000000020733 Rises=F Damp=F
 DIIS: error= 1.83D-06 at cycle  13 NSaved=  13.
 NSaved=13 IEnMin=13 EnMin= -399.116788661080     IErMin=13 ErrMin= 1.83D-06
 ErrMax= 1.83D-06  0.00D+00 EMaxC= 1.00D-01 BMatC= 3.12D-10 BMatP= 2.46D-08
 IDIUse=1 WtCom= 1.00D+00 WtEn= 0.00D+00
 Coeff-Com:  0.110D-04-0.742D-05 0.357D-04-0.187D-05 0.206D-04-0.265D-03
 Coeff-Com: -0.744D-03-0.175D-02-0.922D-02 0.399D-02 0.962D-01 0.184D+00
 Coeff-Com:  0.728D+00
 Coeff:      0.110D-04-0.742D-05 0.357D-04-0.187D-05 0.206D-04-0.265D-03
 Coeff:     -0.744D-03-0.175D-02-0.922D-02 0.399D-02 0.962D-01 0.184D+00
 Coeff:      0.728D+00
 Gap=     0.141 Goal=   None    Shift=    0.000
 RMSDP=1.28D-07 MaxDP=2.40D-06 DE=-2.07D-08 OVMax= 4.40D-06

 Cycle  14  Pass 1  IDiag  1:
 RMSU=  6.78D-08    CP:  1.03D+00  4.82D-01  8.65D-01  1.01D-01  5.68D-01
                    CP:  6.02D-01  6.74D-01  5.76D-01  8.51D-01  9.23D-01
                    CP:  1.11D+00  8.03D-01  8.64D-01
 E= -399.116788661297     Delta-E=       -0.000000000217 Rises=F Damp=F
 DIIS: error= 4.22D-07 at cycle  14 NSaved=  14.
 NSaved=14 IEnMin=14 EnMin= -399.116788661297     IErMin=14 ErrMin= 4.22D-07
 ErrMax= 4.22D-07  0.00D+00 EMaxC= 1.00D-01 BMatC= 5.96D-11 BMatP= 3.12D-10
 IDIUse=1 WtCom= 1.00D+00 WtEn= 0.00D+00
 Coeff-Com:  0.102D-04-0.132D-04 0.117D-04 0.409D-06-0.639D-05 0.509D-04
 Coeff-Com: -0.555D-04-0.232D-03-0.281D-02-0.105D-02 0.260D-01 0.619D-01
 Coeff-Com:  0.415D+00 0.501D+00
 Coeff:      0.102D-04-0.132D-04 0.117D-04 0.409D-06-0.639D-05 0.509D-04
 Coeff:     -0.555D-04-0.232D-03-0.281D-02-0.105D-02 0.260D-01 0.619D-01
 Coeff:      0.415D+00 0.501D+00
 Gap=     0.141 Goal=   None    Shift=    0.000
 RMSDP=3.80D-08 MaxDP=8.22D-07 DE=-2.17D-10 OVMax= 1.51D-06

 Cycle  15  Pass 1  IDiag  1:
 RMSU=  2.22D-08    CP:  1.03D+00  4.82D-01  8.65D-01  1.01D-01  5.68D-01
                    CP:  6.02D-01  6.74D-01  5.76D-01  8.51D-01  9.23D-01
                    CP:  1.11D+00  8.04D-01  8.81D-01  7.11D-01
 E= -399.116788661344     Delta-E=       -0.000000000047 Rises=F Damp=F
 DIIS: error= 2.08D-07 at cycle  15 NSaved=  15.
 NSaved=15 IEnMin=15 EnMin= -399.116788661344     IErMin=15 ErrMin= 2.08D-07
 ErrMax= 2.08D-07  0.00D+00 EMaxC= 1.00D-01 BMatC= 6.23D-12 BMatP= 5.96D-11
 IDIUse=1 WtCom= 1.00D+00 WtEn= 0.00D+00
 Coeff-Com:  0.183D-05-0.233D-05 0.146D-05 0.244D-06-0.254D-05 0.243D-04
 Coeff-Com:  0.788D-05-0.841D-05-0.483D-03-0.101D-02 0.138D-02 0.614D-02
 Coeff-Com:  0.995D-01 0.192D+00 0.703D+00
 Coeff:      0.183D-05-0.233D-05 0.146D-05 0.244D-06-0.254D-05 0.243D-04
 Coeff:      0.788D-05-0.841D-05-0.483D-03-0.101D-02 0.138D-02 0.614D-02
 Coeff:      0.995D-01 0.192D+00 0.703D+00
 Gap=     0.141 Goal=   None    Shift=    0.000
 RMSDP=3.89D-08 MaxDP=3.42D-06 DE=-4.72D-11 OVMax= 7.96D-07

 Cycle  16  Pass 1  IDiag  1:
 RMSU=  4.81D-09    CP:  1.03D+00  4.82D-01  8.65D-01  1.01D-01  5.68D-01
                    CP:  6.02D-01  6.74D-01  5.76D-01  8.51D-01  9.24D-01
                    CP:  1.11D+00  8.07D-01  8.93D-01  7.22D-01  8.31D-01
 E= -399.116788661349     Delta-E=       -0.000000000005 Rises=F Damp=F
 DIIS: error= 3.43D-08 at cycle  16 NSaved=  16.
 NSaved=16 IEnMin=16 EnMin= -399.116788661349     IErMin=16 ErrMin= 3.43D-08
 ErrMax= 3.43D-08  0.00D+00 EMaxC= 1.00D-01 BMatC= 1.41D-13 BMatP= 6.23D-12
 IDIUse=1 WtCom= 1.00D+00 WtEn= 0.00D+00
 Coeff-Com:  0.200D-07-0.671D-07-0.149D-06 0.194D-07 0.633D-07 0.182D-05
 Coeff-Com:  0.118D-05-0.440D-05-0.570D-04-0.283D-03-0.635D-03-0.109D-02
 Coeff-Com:  0.113D-01 0.333D-01 0.175D+00 0.782D+00
 Coeff:      0.200D-07-0.671D-07-0.149D-06 0.194D-07 0.633D-07 0.182D-05
 Coeff:      0.118D-05-0.440D-05-0.570D-04-0.283D-03-0.635D-03-0.109D-02
 Coeff:      0.113D-01 0.333D-01 0.175D+00 0.782D+00
 Gap=     0.141 Goal=   None    Shift=    0.000
 RMSDP=5.59D-09 MaxDP=3.94D-07 DE=-5.46D-12 OVMax= 9.73D-08

 Error on total polarization charges =  0.00869
 SCF Done:  E(RB-P86) =  -399.116788661     A.U. after   16 cycles
            NFock= 16  Conv=0.56D-08     -V/T= 2.0043
 KE= 3.974192974480D+02 PE=-1.580265615489D+03 EE= 4.622850287351D+02
 Leave Link  502 at Mon Feb 22 21:13:28 2021, MaxMem=   104857600 cpu:             276.4 elap:               8.8
 (Enter /sw/arch/RedHatEnterpriseServer7/EB_production/2019/software/Gaussian/g16.c01/l601.exe)
 Copying SCF densities to generalized density rwf, IOpCl= 0 IROHF=0.

 **********************************************************************

            Population analysis using the SCF Density.

 **********************************************************************

 Orbital symmetries:
       Occupied  (A) (A) (A) (A) (A) (A) (A) (A) (A) (A) (A) (A)
                 (A) (A) (A) (A) (A) (A) (A) (A) (A) (A) (A) (A)
                 (A) (A) (A) (A)
       Virtual   (A) (A) (A) (A) (A) (A) (A) (A) (A) (A) (A) (A)
                 (A) (A) (A) (A) (A) (A) (A) (A) (A) (A) (A) (A)
                 (A) (A) (A) (A) (A) (A) (A) (A) (A) (A) (A) (A)
                 (A) (A) (A) (A) (A) (A) (A) (A) (A) (A) (A) (A)
                 (A) (A) (A) (A) (A) (A) (A) (A) (A) (A) (A) (A)
                 (A) (A) (A) (A) (A) (A) (A) (A) (A) (A) (A) (A)
                 (A) (A) (A) (A) (A) (A) (A) (A) (A) (A) (A) (A)
                 (A) (A) (A) (A) (A) (A) (A) (A) (A) (A) (A) (A)
                 (A) (A) (A) (A) (A) (A) (A) (A) (A) (A) (A) (A)
                 (A) (A) (A) (A) (A) (A) (A) (A) (A) (A) (A) (A)
                 (A) (A) (A) (A) (A) (A) (A) (A) (A) (A) (A) (A)
                 (A) (A) (A) (A) (A) (A) (A) (A) (A) (A) (A) (A)
                 (A) (A) (A)
 The electronic state is 1-A.
 Alpha  occ. eigenvalues --  -18.78838 -18.72294 -18.70574 -14.14089  -9.98511
 Alpha  occ. eigenvalues --   -9.97523  -9.96802  -0.96638  -0.95307  -0.92982
 Alpha  occ. eigenvalues --   -0.82595  -0.71958  -0.61623  -0.56696  -0.55151
 Alpha  occ. eigenvalues --   -0.51201  -0.47326  -0.44487  -0.41903  -0.39453
 Alpha  occ. eigenvalues --   -0.37147  -0.34265  -0.33649  -0.31521  -0.24836
 Alpha  occ. eigenvalues --   -0.21989  -0.21212  -0.18010
 Alpha virt. eigenvalues --   -0.03959  -0.00719   0.01290   0.03918   0.04353
 Alpha virt. eigenvalues --    0.07516   0.08615   0.08880   0.10844   0.11380
 Alpha virt. eigenvalues --    0.12961   0.14831   0.16581   0.18984   0.20310
 Alpha virt. eigenvalues --    0.23471   0.25252   0.26751   0.26857   0.30452
 Alpha virt. eigenvalues --    0.30662   0.31098   0.32959   0.34813   0.37512
 Alpha virt. eigenvalues --    0.38397   0.38928   0.39287   0.41111   0.42309
 Alpha virt. eigenvalues --    0.42773   0.43470   0.44165   0.46330   0.48310
 Alpha virt. eigenvalues --    0.48768   0.50600   0.51861   0.53643   0.55254
 Alpha virt. eigenvalues --    0.56688   0.59416   0.61827   0.64208   0.68236
 Alpha virt. eigenvalues --    0.70313   0.80016   0.87433   0.92584   1.04378
 Alpha virt. eigenvalues --    1.06725   1.18222   1.19268   1.20756   1.24466
 Alpha virt. eigenvalues --    1.26039   1.29241   1.31207   1.32400   1.33865
 Alpha virt. eigenvalues --    1.37939   1.40116   1.41166   1.43999   1.47076
 Alpha virt. eigenvalues --    1.49376   1.50287   1.53699   1.54313   1.57783
 Alpha virt. eigenvalues --    1.59349   1.62881   1.66686   1.70176   1.73854
 Alpha virt. eigenvalues --    1.76676   1.77628   1.80130   1.80708   1.84681
 Alpha virt. eigenvalues --    1.85545   1.87010   1.91613   1.95691   1.99655
 Alpha virt. eigenvalues --    2.04811   2.06656   2.09707   2.15812   2.19833
 Alpha virt. eigenvalues --    2.26355   2.26742   2.37238   2.38063   2.44561
 Alpha virt. eigenvalues --    2.45126   2.47192   2.47789   2.49676   2.53535
 Alpha virt. eigenvalues --    2.54626   2.55366   2.57399   2.58783   2.59265
 Alpha virt. eigenvalues --    2.59632   2.61006   2.62137   2.63804   2.65376
 Alpha virt. eigenvalues --    2.68907   2.70053   2.71343   2.74320   2.74580
 Alpha virt. eigenvalues --    2.76182   2.79829   2.84177   2.85172   2.92705
 Alpha virt. eigenvalues --    2.95234   2.97702   2.98765   3.04650   3.07555
 Alpha virt. eigenvalues --    3.08920   3.10959   3.15166   3.21490   3.24310
 Alpha virt. eigenvalues --    3.30563   3.31240   3.47522   3.64027   3.75293
 Alpha virt. eigenvalues --    3.76120   3.86693   3.98946   4.08779   4.15324
 Alpha virt. eigenvalues --   21.64089  21.71880  21.77213  31.32187  43.07622
 Alpha virt. eigenvalues --   43.13590  43.21606
          Condensed to atoms (all electrons):
               1          2          3          4          5          6
     1  N    6.256482  -0.086264   0.025948   0.006952   0.045436  -0.001730
     2  C   -0.086264   6.958085  -0.170181  -0.125759  -0.380186  -0.176137
     3  C    0.025948  -0.170181   5.386957   0.307939  -0.011845  -0.003948
     4  O    0.006952  -0.125759   0.307939   7.942438   0.036789  -0.001472
     5  C    0.045436  -0.380186  -0.011845   0.036789   5.210939   0.539133
     6  O   -0.001730  -0.176137  -0.003948  -0.001472   0.539133   8.178024
     7  O   -0.005325  -0.150908  -0.016994   0.000014   0.567777  -0.176069
     8  H    0.356713  -0.049700   0.009424  -0.000113   0.015721   0.001441
     9  H    0.324872   0.005461  -0.021039   0.000054  -0.010586   0.017990
    10  H    0.353668  -0.014453  -0.005547  -0.000015   0.002447  -0.000630
    11  H   -0.028312   0.326963  -0.039274   0.012586  -0.046867   0.012325
    12  H   -0.014090   0.047504   0.319845  -0.052743  -0.035786   0.014719
    13  H    0.001897  -0.058221   0.418368  -0.050408   0.016764   0.000623
    14  H   -0.000449   0.015722  -0.033688   0.302446  -0.001092  -0.000153
               7          8          9         10         11         12
     1  N   -0.005325   0.356713   0.324872   0.353668  -0.028312  -0.014090
     2  C   -0.150908  -0.049700   0.005461  -0.014453   0.326963   0.047504
     3  C   -0.016994   0.009424  -0.021039  -0.005547  -0.039274   0.319845
     4  O    0.000014  -0.000113   0.000054  -0.000015   0.012586  -0.052743
     5  C    0.567777   0.015721  -0.010586   0.002447  -0.046867  -0.035786
     6  O   -0.176069   0.001441   0.017990  -0.000630   0.012325   0.014719
     7  O    8.254301   0.002595   0.001289  -0.000798   0.026898   0.002195
     8  H    0.002595   0.357321  -0.011018  -0.012666  -0.002826  -0.000566
     9  H    0.001289  -0.011018   0.372255  -0.012484   0.007599   0.011017
    10  H   -0.000798  -0.012666  -0.012484   0.366674  -0.008805  -0.001186
    11  H    0.026898  -0.002826   0.007599  -0.008805   0.549730   0.014574
    12  H    0.002195  -0.000566   0.011017  -0.001186   0.014574   0.612721
    13  H   -0.000462  -0.000306  -0.001255   0.005885  -0.021414  -0.058315
    14  H    0.000108   0.000022  -0.000057  -0.000054  -0.000598  -0.007240
              13         14
     1  N    0.001897  -0.000449
     2  C   -0.058221   0.015722
     3  C    0.418368  -0.033688
     4  O   -0.050408   0.302446
     5  C    0.016764  -0.001092
     6  O    0.000623  -0.000153
     7  O   -0.000462   0.000108
     8  H   -0.000306   0.000022
     9  H   -0.001255  -0.000057
    10  H    0.005885  -0.000054
    11  H   -0.021414  -0.000598
    12  H   -0.058315  -0.007240
    13  H    0.597679  -0.001347
    14  H   -0.001347   0.419705
 Mulliken charges:
               1
     1  N   -0.235798
     2  C   -0.141927
     3  C   -0.165966
     4  O   -0.378710
     5  C    0.051355
     6  O   -0.404116
     7  O   -0.504620
     8  H    0.333957
     9  H    0.315902
    10  H    0.327967
    11  H    0.197420
    12  H    0.147351
    13  H    0.150512
    14  H    0.306674
 Sum of Mulliken charges =  -0.00000
 Mulliken charges with hydrogens summed into heavy atoms:
               1
     1  N    0.742027
     2  C    0.055493
     3  C    0.131898
     4  O   -0.072036
     5  C    0.051355
     6  O   -0.404116
     7  O   -0.504620
 Electronic spatial extent (au):  <R**2>=            774.9430
 Charge=             -0.0000 electrons
 Dipole moment (field-independent basis, Debye):
    X=             -8.3144    Y=             14.0301    Z=             -0.3825  Tot=             16.3132
 Quadrupole moment (field-independent basis, Debye-Ang):
   XX=            -44.0836   YY=            -29.3859   ZZ=            -47.0862
   XY=             10.2648   XZ=             -3.4542   YZ=             -4.9789
 Traceless Quadrupole moment (field-independent basis, Debye-Ang):
   XX=             -3.8984   YY=             10.7993   ZZ=             -6.9010
   XY=             10.2648   XZ=             -3.4542   YZ=             -4.9789
 Octapole moment (field-independent basis, Debye-Ang**2):
  XXX=            -50.0870  YYY=             59.5658  ZZZ=             -3.6266  XYY=             -8.2524
  XXY=             14.5317  XXZ=              7.7043  XZZ=            -12.8496  YZZ=             13.0489
  YYZ=              1.5817  XYZ=              0.3098
 Hexadecapole moment (field-independent basis, Debye-Ang**3):
 XXXX=           -415.8400 YYYY=           -225.3819 ZZZZ=           -162.0151 XXXY=             66.6991
 XXXZ=            -16.9760 YYYX=             30.2660 YYYZ=            -19.6443 ZZZX=             -5.0486
 ZZZY=             -3.2383 XXYY=           -121.0914 XXZZ=           -117.3090 YYZZ=            -73.8978
 XXYZ=            -20.2487 YYXZ=              0.1715 ZZXY=             12.8743
 N-N= 3.214445006449D+02 E-N=-1.580265618871D+03  KE= 3.974192974480D+02
 No NMR shielding tensors so no spin-rotation constants.
 Leave Link  601 at Mon Feb 22 21:13:28 2021, MaxMem=   104857600 cpu:               9.9 elap:               0.4
 (Enter /sw/arch/RedHatEnterpriseServer7/EB_production/2019/software/Gaussian/g16.c01/l701.exe)
 ... and contract with generalized density number  0.
 Compute integral first derivatives.
 R6Disp: Adding Grimme-D3 dispersion energy 1st derivatives to the gradient.
 PrsmSu:  requested number of processors reduced to:  30 ShMem   1 Linda.
 D1PCM: PCM CHGder 1st derivatives, ID1Alg=3 FixD1E=F DoIter=F DoCFld=F I1PDM=0.
 GePol: Maximum number of non-zero 1st derivatives   =     227
 CoulSu:  requested number of processors reduced to:  29 ShMem   1 Linda.
 CoulSu:  requested number of processors reduced to:  30 ShMem   1 Linda.
 Leave Link  701 at Mon Feb 22 21:13:29 2021, MaxMem=   104857600 cpu:              19.7 elap:               0.7
 (Enter /sw/arch/RedHatEnterpriseServer7/EB_production/2019/software/Gaussian/g16.c01/l702.exe)
 L702 exits ... SP integral derivatives will be done elsewhere.
 Leave Link  702 at Mon Feb 22 21:13:29 2021, MaxMem=   104857600 cpu:               1.1 elap:               0.1
 (Enter /sw/arch/RedHatEnterpriseServer7/EB_production/2019/software/Gaussian/g16.c01/l703.exe)
 Integral derivatives from FoFJK, PRISM(SPDF).
 Compute integral first derivatives, UseDBF=F ICtDFT=           0.
 Calling FoFJK, ICntrl=      2527 FMM=F ISym2X=0 I1Cent= 0 IOpClX= 0 NMat=1 NMatS=1 NMatT=0.
 FoFJK:  IHMeth= 1 ICntrl=    2527 DoSepK=F KAlg= 0 I1Cent=           0 FoldK=F
 IRaf=         0 NMat=       1 IRICut=       1 DoRegI=T DoRafI=F ISym2E= 0 IDoP0=0 IntGTp=1.
 FoFCou: FMM=F IPFlag=           0 FMFlag=      100000 FMFlg1=         800
         NFxFlg=           0 DoJE=F BraDBF=F KetDBF=F FulRan=T
         wScrn=  0.000000 ICntrl=      2527 IOpCl=  0 I1Cent=           0 NGrid=           0
         NMat0=    1 NMatS0=      1 NMatT0=    0 NMatD0=    1 NMtDS0=    0 NMtDT0=    0
 Symmetry not used in FoFCou.
 Leave Link  703 at Mon Feb 22 21:13:30 2021, MaxMem=   104857600 cpu:              25.5 elap:               0.9
 (Enter /sw/arch/RedHatEnterpriseServer7/EB_production/2019/software/Gaussian/g16.c01/l716.exe)
 Dipole        =-3.27115077D+00 5.51986250D+00-1.50476205D-01
 ***** Axes restored to original set *****
 -------------------------------------------------------------------
 Center     Atomic                   Forces (Hartrees/Bohr)
 Number     Number              X              Y              Z
 -------------------------------------------------------------------
      1        7           0.005487263    0.004760575   -0.000563387
      2        6          -0.017679510    0.029667001    0.018364859
      3        6           0.003966746    0.000600331   -0.001334360
      4        8          -0.005501271   -0.000982743    0.003927813
      5        6          -0.082990305   -0.082211769    0.023560593
      6        8           0.030798823    0.011644614   -0.003475780
      7        8           0.050299145    0.044284513   -0.010407746
      8        1           0.001238316   -0.002697292   -0.006031984
      9        1           0.007135373   -0.005533331   -0.000725959
     10        1           0.004710514    0.003043499   -0.006208926
     11        1          -0.002591062    0.001837469   -0.002352078
     12        1           0.006850636   -0.005788773   -0.004077044
     13        1           0.004111168    0.004814647   -0.008850680
     14        1          -0.005835837   -0.003438742   -0.001825320
 -------------------------------------------------------------------
 Cartesian Forces:  Max     0.082990305 RMS     0.022898386
 Leave Link  716 at Mon Feb 22 21:13:30 2021, MaxMem=   104857600 cpu:               0.8 elap:               0.0
 (Enter /sw/arch/RedHatEnterpriseServer7/EB_production/2019/software/Gaussian/g16.c01/l103.exe)

 GradGradGradGradGradGradGradGradGradGradGradGradGradGradGradGradGradGrad
 Berny optimization.
 FormGI is forming the generalized inverse of G from B-inverse, IUseBI=4.
 Internal  Forces:  Max     0.061546874 RMS     0.012715981
 Search for a local minimum.
 Step number   1 out of a maximum of   72
 All quantities printed in internal units (Hartrees-Bohrs-Radians)
 RMS Force = .12716D-01 SwitMx=.10000D-02 MixMth= 1
 Mixed Optimization -- RFO/linear search
 Second derivative matrix not updated -- first step.
 ITU=  0
     Eigenvalues ---    0.00230   0.00743   0.01034   0.01034   0.01371
     Eigenvalues ---    0.04163   0.04902   0.04980   0.05651   0.05925
     Eigenvalues ---    0.06013   0.06020   0.11507   0.13814   0.16000
     Eigenvalues ---    0.16000   0.16000   0.16000   0.16660   0.18108
     Eigenvalues ---    0.22049   0.25000   0.25000   0.27639   0.34260
     Eigenvalues ---    0.34429   0.34506   0.34597   0.35535   0.41825
     Eigenvalues ---    0.43773   0.43830   0.43861   0.51400   0.54185
     Eigenvalues ---    0.82508
 RFO step:  Lambda=-2.88894315D-02 EMin= 2.30000000D-03
 Linear search not attempted -- first point.
 Iteration  1 RMS(Cart)=  0.05305646 RMS(Int)=  0.00261893
 Iteration  2 RMS(Cart)=  0.00281992 RMS(Int)=  0.00061206
 Iteration  3 RMS(Cart)=  0.00000713 RMS(Int)=  0.00061202
 Iteration  4 RMS(Cart)=  0.00000000 RMS(Int)=  0.00061202
 ITry= 1 IFail=0 DXMaxC= 1.64D-01 DCOld= 1.00D+10 DXMaxT= 3.00D-01 DXLimC= 3.00D+00 Rises=F
 Variable       Old X    -DE/DX   Delta X   Delta X   Delta X     New X
                                 (Linear)    (Quad)   (Total)
    R1        2.78115   0.02216   0.00000   0.05768   0.05768   2.83883
    R2        1.93321   0.00532   0.00000   0.01138   0.01138   1.94459
    R3        1.93427   0.00825   0.00000   0.01768   0.01768   1.95195
    R4        1.93359   0.00600   0.00000   0.01285   0.01285   1.94644
    R5        2.92935  -0.01007   0.00000  -0.03299  -0.03299   2.89636
    R6        2.79635   0.02765   0.00000   0.07377   0.07377   2.87012
    R7        2.06485   0.00376   0.00000   0.01007   0.01007   2.07492
    R8        2.69146   0.00844   0.00000   0.01886   0.01886   2.71033
    R9        2.06894   0.00676   0.00000   0.01821   0.01821   2.08715
   R10        2.06611   0.00837   0.00000   0.02243   0.02243   2.08854
   R11        1.85178  -0.00599   0.00000  -0.01102  -0.01102   1.84076
   R12        2.36591   0.01303   0.00000   0.01526   0.01526   2.38116
   R13        2.55864  -0.06155   0.00000  -0.10784  -0.10784   2.45080
    A1        1.91415   0.00349   0.00000   0.01654   0.01631   1.93046
    A2        1.91207   0.00180   0.00000   0.00827   0.00809   1.92016
    A3        1.91542   0.00702   0.00000   0.04037   0.03994   1.95536
    A4        1.90935  -0.00401   0.00000  -0.02757  -0.02754   1.88181
    A5        1.90363  -0.00477   0.00000  -0.02277  -0.02323   1.88040
    A6        1.90915  -0.00362   0.00000  -0.01525  -0.01561   1.89354
    A7        1.93012  -0.00489   0.00000  -0.03485  -0.03507   1.89505
    A8        1.91434  -0.00107   0.00000  -0.01695  -0.01734   1.89699
    A9        1.86932   0.00229   0.00000   0.01756   0.01781   1.88713
   A10        1.95052   0.00226   0.00000   0.00204   0.00116   1.95168
   A11        1.89088   0.00089   0.00000   0.01266   0.01274   1.90362
   A12        1.90660   0.00061   0.00000   0.02139   0.02138   1.92797
   A13        1.92927  -0.01720   0.00000  -0.06894  -0.06891   1.86037
   A14        1.92858  -0.00210   0.00000  -0.02902  -0.02863   1.89995
   A15        1.92342  -0.00067   0.00000  -0.01752  -0.01691   1.90651
   A16        1.89576   0.01041   0.00000   0.05490   0.05301   1.94877
   A17        1.88716   0.01014   0.00000   0.05785   0.05653   1.94369
   A18        1.89874   0.00008   0.00000   0.00664   0.00468   1.90341
   A19        1.82797   0.00677   0.00000   0.03584   0.03584   1.86381
   A20        2.11210  -0.02359   0.00000  -0.08452  -0.08481   2.02729
   A21        2.11025  -0.02464   0.00000  -0.08828  -0.08858   2.02167
   A22        2.06081   0.04823   0.00000   0.17301   0.17271   2.23353
    D1       -3.10811  -0.00072   0.00000  -0.01164  -0.01150  -3.11961
    D2        1.01605   0.00049   0.00000   0.02119   0.02083   1.03688
    D3       -1.05113  -0.00097   0.00000  -0.00518  -0.00534  -1.05647
    D4        1.07921   0.00094   0.00000   0.00689   0.00726   1.08647
    D5       -1.07982   0.00214   0.00000   0.03973   0.03959  -1.04023
    D6        3.13619   0.00068   0.00000   0.01335   0.01342  -3.13358
    D7       -1.01719  -0.00008   0.00000  -0.00447  -0.00417  -1.02136
    D8        3.10696   0.00113   0.00000   0.02837   0.02816   3.13513
    D9        1.03978  -0.00033   0.00000   0.00200   0.00199   1.04178
   D10        3.11082   0.00139   0.00000   0.01711   0.01689   3.12771
   D11       -1.07326   0.00182   0.00000   0.02194   0.02223  -1.05103
   D12        1.02576   0.00013   0.00000   0.00018  -0.00006   1.02570
   D13       -1.03433  -0.00189   0.00000  -0.02805  -0.02820  -1.06253
   D14        1.06478  -0.00145   0.00000  -0.02322  -0.02285   1.04193
   D15       -3.11939  -0.00315   0.00000  -0.04499  -0.04514   3.11865
   D16        1.06709   0.00086   0.00000   0.00808   0.00795   1.07504
   D17       -3.11699   0.00129   0.00000   0.01291   0.01330  -3.10369
   D18       -1.01797  -0.00040   0.00000  -0.00885  -0.00900  -1.02696
   D19        1.06425  -0.00461   0.00000  -0.07636  -0.07638   0.98787
   D20       -2.08321  -0.00293   0.00000  -0.03351  -0.03354  -2.11674
   D21       -1.08278   0.00084   0.00000  -0.02126  -0.02116  -1.10394
   D22        2.05295   0.00252   0.00000   0.02159   0.02168   2.07463
   D23        3.10819  -0.00211   0.00000  -0.05248  -0.05255   3.05564
   D24       -0.03926  -0.00043   0.00000  -0.00964  -0.00971  -0.04897
   D25        3.09042  -0.00073   0.00000  -0.00853  -0.00857   3.08185
   D26        0.97177   0.00589   0.00000   0.03494   0.03726   1.00903
   D27       -1.08596  -0.00554   0.00000  -0.03516  -0.03744  -1.12340
         Item               Value     Threshold  Converged?
 Maximum Force            0.061547     0.000450     NO 
 RMS     Force            0.012716     0.000300     NO 
 Maximum Displacement     0.164216     0.001800     NO 
 RMS     Displacement     0.053180     0.001200     NO 
 Predicted change in Energy=-1.604071D-02
 Lowest energy point so far.  Saving SCF results.
 GradGradGradGradGradGradGradGradGradGradGradGradGradGradGradGradGradGrad

 Leave Link  103 at Mon Feb 22 21:13:30 2021, MaxMem=   104857600 cpu:               1.0 elap:               0.1
 (Enter /sw/arch/RedHatEnterpriseServer7/EB_production/2019/software/Gaussian/g16.c01/l202.exe)
                          Input orientation:                          
 ---------------------------------------------------------------------
 Center     Atomic      Atomic             Coordinates (Angstroms)
 Number     Number       Type             X           Y           Z
 ---------------------------------------------------------------------
      1          7           0        2.422025   -2.608160   -1.539295
      2          6           0        1.466277   -2.475920   -0.387864
      3          6           0        2.126518   -1.620403    0.699012
      4          8           0        1.174093   -1.506293    1.765278
      5          6           0        1.120359   -3.865043    0.119518
      6          8           0        2.092154   -4.585694    0.471681
      7          8           0       -0.137993   -4.178061    0.096298
      8          1           0        2.000739   -3.161156   -2.297994
      9          1           0        3.280076   -3.094541   -1.232503
     10          1           0        2.687179   -1.692138   -1.928547
     11          1           0        0.564823   -1.963725   -0.749302
     12          1           0        3.053603   -2.119698    1.032293
     13          1           0        2.380887   -0.630403    0.278678
     14          1           0        1.610700   -1.009755    2.480588
 ---------------------------------------------------------------------
                    Distance matrix (angstroms):
                    1          2          3          4          5
     1  N    0.000000
     2  C    1.502243   0.000000
     3  C    2.464347   1.532686   0.000000
     4  O    3.700223   2.379405   1.434244   0.000000
     5  C    2.454740   1.518802   2.527168   2.876650   0.000000
     6  O    2.839627   2.362560   2.974191   3.463949   1.260056
     7  O    3.419568   2.388593   3.468845   3.412536   1.296907
     8  H    1.029035   2.098523   3.372208   4.464538   2.667375
     9  H    1.032927   2.094272   2.689709   3.993043   2.661956
    10  H    1.030010   2.116275   2.687667   3.996037   3.372093
    11  H    2.118628   1.097998   2.157400   2.627464   2.162980
    12  H    2.692684   2.159478   1.104472   2.108576   2.759859
    13  H    2.686678   2.164883   1.105208   2.105591   3.475220
    14  H    4.401432   3.224673   1.952683   0.974086   3.737346
                    6          7          8          9         10
     6  O    0.000000
     7  O    2.297963   0.000000
     8  H    3.115890   3.367626   0.000000
     9  H    2.557135   3.823992   1.666257   0.000000
    10  H    3.806287   4.273337   1.663041   1.674138   0.000000
    11  H    3.270820   2.472302   2.427786   2.980742   2.443107
    12  H    2.705514   3.911423   3.644718   2.476068   3.013909
    13  H    3.970509   4.354755   3.631592   3.027240   2.468388
    14  H    4.129751   4.333696   5.255046   4.573860   4.589655
                   11         12         13         14
    11  H    0.000000
    12  H    3.064708   0.000000
    13  H    2.476404   1.799578   0.000000
    14  H    3.526486   2.326264   2.363368   0.000000
 Stoichiometry    C3H7NO3
 Framework group  C1[X(C3H7NO3)]
 Deg. of freedom    36
 Full point group                 C1      NOp   1
 RotChk:  IX=0 Diff= 7.95D-02
 Largest Abelian subgroup         C1      NOp   1
 Largest concise Abelian subgroup C1      NOp   1
                         Standard orientation:                         
 ---------------------------------------------------------------------
 Center     Atomic      Atomic             Coordinates (Angstroms)
 Number     Number       Type             X           Y           Z
 ---------------------------------------------------------------------
      1          7           0        0.321306    1.887710   -0.191736
      2          6           0       -0.120091    0.477977   -0.464787
      3          6           0       -1.470608    0.247393    0.222282
      4          8           0       -1.859472   -1.099510   -0.080528
      5          6           0        0.945298   -0.474017    0.050394
      6          8           0        1.244908   -0.365143    1.269460
      7          8           0        1.465114   -1.270853   -0.830976
      8          1           0        1.217769    2.083201   -0.657622
      9          1           0        0.455713    2.025846    0.823051
     10          1           0       -0.364255    2.579182   -0.527583
     11          1           0       -0.245274    0.363300   -1.549581
     12          1           0       -1.349252    0.402039    1.309119
     13          1           0       -2.205696    0.975662   -0.165987
     14          1           0       -2.690145   -1.267269    0.399767
 ---------------------------------------------------------------------
 Rotational constants (GHZ):           3.0231052           2.3516734           1.7458707
 Leave Link  202 at Mon Feb 22 21:13:30 2021, MaxMem=   104857600 cpu:               0.7 elap:               0.1
 (Enter /sw/arch/RedHatEnterpriseServer7/EB_production/2019/software/Gaussian/g16.c01/l301.exe)
 Standard basis: TZVP (5D, 7F)
 Ernie: Thresh=  0.10000D-02 Tol=  0.10000D-05 Strict=F.
 There are   182 symmetry adapted cartesian basis functions of A   symmetry.
 There are   175 symmetry adapted basis functions of A   symmetry.
   175 basis functions,   301 primitive gaussians,   182 cartesian basis functions
    28 alpha electrons       28 beta electrons
       nuclear repulsion energy       322.9247601614 Hartrees.
 IExCor=  404 DFT=T Ex=B Corr=P86 ExCW=0 ScaHFX=  0.000000
 ScaDFX=  1.000000  1.000000  1.000000  1.000000 ScalE2=  1.000000  1.000000
 IRadAn=      5 IRanWt=     -1 IRanGd=            0 ICorTp=0 IEmpDi=131
 NAtoms=   14 NActive=   14 NUniq=   14 SFac= 1.00D+00 NAtFMM=   60 NAOKFM=F Big=F
 Integral buffers will be    131072 words long.
 Raffenetti 2 integral format.
 Two-electron integral symmetry is turned on.
 R6Disp:  Grimme-D3 Dispersion energy=       -0.0125310083 Hartrees.
 Nuclear repulsion after empirical dispersion term =      322.9122291530 Hartrees.
 ------------------------------------------------------------------------------
 Polarizable Continuum Model (PCM)
 =================================
 Model                : PCM.
 Atomic radii         : UFF (Universal Force Field).
 Polarization charges : Total charges.
 Charge compensation  : None.
 Solution method      : On-the-fly selection.
 Cavity type          : Scaled VdW (van der Waals Surface) (Alpha=1.100).
 Cavity algorithm     : GePol (No added spheres)
                        Default sphere list used, NSphG=   14.
                        Lebedev-Laikov grids with approx.  5.0 points / Ang**2.
                        Smoothing algorithm: York/Karplus (Gamma=1.0000).
                        Polarization charges: spherical gaussians, with
                                              point-specific exponents (IZeta= 3).
                        Self-potential: point-specific (ISelfS= 7).
                        Self-field    : sphere-specific E.n sum rule (ISelfD= 2).
 1st derivatives      : Analytical E(r).r(x)/FMM algorithm (CHGder, D1EAlg=3).
                        Cavity 1st derivative terms included.
 Solvent              : Water, Eps=  78.355300 Eps(inf)=   1.777849
 ------------------------------------------------------------------------------
 Spheres list:
 ISph  on   Nord     Re0    Alpha      Xe            Ye            Ze
    1   N      1    1.8300  1.100      0.321306      1.887710     -0.191736
    2   C      2    1.9255  1.100     -0.120091      0.477977     -0.464787
    3   C      3    1.9255  1.100     -1.470608      0.247393      0.222282
    4   O      4    1.7500  1.100     -1.859472     -1.099510     -0.080528
    5   C      5    1.9255  1.100      0.945298     -0.474017      0.050394
    6   O      6    1.7500  1.100      1.244908     -0.365143      1.269460
    7   O      7    1.7500  1.100      1.465114     -1.270853     -0.830976
    8   H      8    1.4430  1.100      1.217769      2.083201     -0.657622
    9   H      9    1.4430  1.100      0.455713      2.025846      0.823051
   10   H     10    1.4430  1.100     -0.364255      2.579182     -0.527583
   11   H     11    1.4430  1.100     -0.245274      0.363300     -1.549581
   12   H     12    1.4430  1.100     -1.349252      0.402039      1.309119
   13   H     13    1.4430  1.100     -2.205696      0.975662     -0.165987
   14   H     14    1.4430  1.100     -2.690145     -1.267269      0.399767
 ------------------------------------------------------------------------------
 GePol: Number of generator spheres                  =      14
 GePol: Total number of spheres                      =      14
 GePol: Number of exposed spheres                    =      14 (100.00%)
 GePol: Number of points                             =    1218
 GePol: Average weight of points                     =       0.13
 GePol: Minimum weight of points                     =   0.18D-08
 GePol: Maximum weight of points                     =    0.20559
 GePol: Number of points with low weight             =      54
 GePol: Fraction of low-weight points (<1% of avg)   =       4.43%
 GePol: Cavity surface area                          =    162.158 Ang**2
 GePol: Cavity volume                                =    151.367 Ang**3
 Leave Link  301 at Mon Feb 22 21:13:30 2021, MaxMem=   104857600 cpu:               2.0 elap:               0.1
 (Enter /sw/arch/RedHatEnterpriseServer7/EB_production/2019/software/Gaussian/g16.c01/l302.exe)
 NPDir=0 NMtPBC=     1 NCelOv=     1 NCel=       1 NClECP=     1 NCelD=      1
         NCelK=      1 NCelE2=     1 NClLst=     1 CellRange=     0.0.
 One-electron integrals computed using PRISM.
 One-electron integral symmetry used in STVInt
 PrsmSu:  requested number of processors reduced to:  29 ShMem   1 Linda.
 NBasis=   175 RedAO= T EigKep=  2.99D-04  NBF=   175
 NBsUse=   175 1.00D-06 EigRej= -1.00D+00 NBFU=   175
 Precomputing XC quadrature grid using
 IXCGrd= 4 IRadAn=           5 IRanWt=          -1 IRanGd=           0 AccXCQ= 0.00D+00.
 Generated NRdTot=       0 NPtTot=           0 NUsed=           0 NTot=          32
 NSgBfM=   181   181   181   181   181 MxSgAt=    14 MxSgA2=    14.
 Leave Link  302 at Mon Feb 22 21:13:31 2021, MaxMem=   104857600 cpu:               4.9 elap:               0.2
 (Enter /sw/arch/RedHatEnterpriseServer7/EB_production/2019/software/Gaussian/g16.c01/l303.exe)
 DipDrv:  MaxL=1.
 Leave Link  303 at Mon Feb 22 21:13:31 2021, MaxMem=   104857600 cpu:               2.1 elap:               0.1
 (Enter /sw/arch/RedHatEnterpriseServer7/EB_production/2019/software/Gaussian/g16.c01/l401.exe)
 Initial guess from the checkpoint file:  "MTCFGRXMJLQNBG-UWTATZPHSA-N.chk"
 B after Tr=     0.000000   -0.000000    0.000000
         Rot=    0.999554    0.018822   -0.007224    0.022045 Ang=   3.42 deg.
 Guess basis will be translated and rotated to current coordinates.
 JPrj=2 DoOrth=T DoCkMO=T.
 Generating alternative initial guess.
 ExpMin= 9.52D-02 ExpMax= 2.70D+04 ExpMxC= 9.22D+02 IAcc=3 IRadAn=         5 AccDes= 0.00D+00
 Harris functional with IExCor=  404 and IRadAn=       5 diagonalized for initial guess.
 HarFok:  IExCor=  404 AccDes= 0.00D+00 IRadAn=         5 IDoV= 1 UseB2=F ITyADJ=14
 ICtDFT=  3500011 ScaDFX=  1.000000  1.000000  1.000000  1.000000
 FoFCou: FMM=F IPFlag=           0 FMFlag=      100000 FMFlg1=           0
         NFxFlg=           0 DoJE=T BraDBF=F KetDBF=T FulRan=T
         wScrn=  0.000000 ICntrl=       500 IOpCl=  0 I1Cent=   200000004 NGrid=           0
         NMat0=    1 NMatS0=      1 NMatT0=    0 NMatD0=    1 NMtDS0=    0 NMtDT0=    0
 Petite list used in FoFCou.
 Harris En= -399.246207216773    
 Leave Link  401 at Mon Feb 22 21:13:31 2021, MaxMem=   104857600 cpu:              10.1 elap:               0.4
 (Enter /sw/arch/RedHatEnterpriseServer7/EB_production/2019/software/Gaussian/g16.c01/l502.exe)
 Integral symmetry usage will be decided dynamically.
 Closed shell SCF:
 Using DIIS extrapolation, IDIIS=  1040.
 NGot=   104857600 LenX=   104783248 LenY=   104749683
 Requested convergence on RMS density matrix=1.00D-08 within 128 cycles.
 Requested convergence on MAX density matrix=1.00D-06.
 Requested convergence on             energy=1.00D-06.
 No special actions if energy rises.
 Fock matrices will be formed incrementally for  20 cycles.

 Cycle   1  Pass 1  IDiag  1:
 FoFJK:  IHMeth= 1 ICntrl=     500 DoSepK=F KAlg= 0 I1Cent=           0 FoldK=F
 IRaf= 960000000 NMat=       1 IRICut=       1 DoRegI=T DoRafI=F ISym2E= 0 IDoP0=0 IntGTp=1.
 FoFCou: FMM=F IPFlag=           0 FMFlag=      100000 FMFlg1=           0
         NFxFlg=           0 DoJE=T BraDBF=F KetDBF=F FulRan=T
         wScrn=  0.000000 ICntrl=       500 IOpCl=  0 I1Cent=           0 NGrid=           0
         NMat0=    1 NMatS0=      1 NMatT0=    0 NMatD0=    1 NMtDS0=    0 NMtDT0=    0
 Symmetry not used in FoFCou.
 Inv3:  Mode=1 IEnd=     4450572.
 Iteration    1 A*A^-1 deviation from unit magnitude is 2.66D-15 for    411.
 Iteration    1 A*A^-1 deviation from orthogonality  is 2.33D-15 for   1057    112.
 Iteration    1 A^-1*A deviation from unit magnitude is 2.44D-15 for    732.
 Iteration    1 A^-1*A deviation from orthogonality  is 1.61D-15 for   1082    360.
 E= -399.119779876268    
 DIIS: error= 5.56D-03 at cycle   1 NSaved=   1.
 NSaved= 1 IEnMin= 1 EnMin= -399.119779876268     IErMin= 1 ErrMin= 5.56D-03
 ErrMax= 5.56D-03  0.00D+00 EMaxC= 1.00D-01 BMatC= 1.06D-02 BMatP= 1.06D-02
 IDIUse=3 WtCom= 9.44D-01 WtEn= 5.56D-02
 Coeff-Com:  0.100D+01
 Coeff-En:   0.100D+01
 Coeff:      0.100D+01
 Gap=     0.518 Goal=   None    Shift=    0.000
 GapD=    0.518 DampG=2.000 DampE=1.000 DampFc=2.0000 IDamp=-1.
 RMSDP=2.02D-03 MaxDP=1.16D-01              OVMax= 4.95D-02

 Cycle   2  Pass 1  IDiag  1:
 RMSU=  1.93D-03    CP:  9.67D-01
 E= -399.132635419995     Delta-E=       -0.012855543727 Rises=F Damp=F
 DIIS: error= 3.70D-03 at cycle   2 NSaved=   2.
 NSaved= 2 IEnMin= 2 EnMin= -399.132635419995     IErMin= 2 ErrMin= 3.70D-03
 ErrMax= 3.70D-03  0.00D+00 EMaxC= 1.00D-01 BMatC= 2.91D-03 BMatP= 1.06D-02
 IDIUse=3 WtCom= 9.63D-01 WtEn= 3.70D-02
 Coeff-Com:  0.263D+00 0.737D+00
 Coeff-En:   0.000D+00 0.100D+01
 Coeff:      0.253D+00 0.747D+00
 Gap=     0.154 Goal=   None    Shift=    0.000
 RMSDP=1.08D-03 MaxDP=8.24D-02 DE=-1.29D-02 OVMax= 4.14D-02

 Cycle   3  Pass 1  IDiag  1:
 RMSU=  7.51D-04    CP:  9.88D-01  6.47D-01
 E= -399.128530418397     Delta-E=        0.004105001598 Rises=F Damp=F
 DIIS: error= 6.45D-03 at cycle   3 NSaved=   3.
 NSaved= 3 IEnMin= 2 EnMin= -399.132635419995     IErMin= 2 ErrMin= 3.70D-03
 ErrMax= 6.45D-03  0.00D+00 EMaxC= 1.00D-01 BMatC= 8.17D-03 BMatP= 2.91D-03
 IDIUse=3 WtCom= 1.11D-01 WtEn= 8.89D-01
 Coeff-Com:  0.267D-01 0.618D+00 0.356D+00
 Coeff-En:   0.000D+00 0.693D+00 0.307D+00
 Coeff:      0.295D-02 0.684D+00 0.313D+00
 Gap=     0.163 Goal=   None    Shift=    0.000
 RMSDP=6.67D-04 MaxDP=4.74D-02 DE= 4.11D-03 OVMax= 3.34D-02

 Cycle   4  Pass 1  IDiag  1:
 RMSU=  2.29D-04    CP:  9.76D-01  8.19D-01  3.57D-01
 E= -399.134313439474     Delta-E=       -0.005783021077 Rises=F Damp=F
 DIIS: error= 1.83D-03 at cycle   4 NSaved=   4.
 NSaved= 4 IEnMin= 4 EnMin= -399.134313439474     IErMin= 4 ErrMin= 1.83D-03
 ErrMax= 1.83D-03  0.00D+00 EMaxC= 1.00D-01 BMatC= 4.38D-04 BMatP= 2.91D-03
 IDIUse=3 WtCom= 9.82D-01 WtEn= 1.83D-02
 Coeff-Com:  0.817D-02 0.413D+00 0.192D+00 0.386D+00
 Coeff-En:   0.000D+00 0.125D+00 0.000D+00 0.875D+00
 Coeff:      0.802D-02 0.408D+00 0.189D+00 0.395D+00
 Gap=     0.166 Goal=   None    Shift=    0.000
 RMSDP=1.80D-04 MaxDP=9.34D-03 DE=-5.78D-03 OVMax= 6.17D-03

 Cycle   5  Pass 1  IDiag  1:
 RMSU=  9.54D-05    CP:  9.73D-01  8.68D-01  2.77D-01  6.17D-01
 E= -399.134594585209     Delta-E=       -0.000281145735 Rises=F Damp=F
 DIIS: error= 6.94D-04 at cycle   5 NSaved=   5.
 NSaved= 5 IEnMin= 5 EnMin= -399.134594585209     IErMin= 5 ErrMin= 6.94D-04
 ErrMax= 6.94D-04  0.00D+00 EMaxC= 1.00D-01 BMatC= 6.16D-05 BMatP= 4.38D-04
 IDIUse=3 WtCom= 9.93D-01 WtEn= 6.94D-03
 Coeff-Com:  0.536D-04 0.166D+00 0.730D-01 0.283D+00 0.479D+00
 Coeff-En:   0.000D+00 0.000D+00 0.000D+00 0.137D+00 0.863D+00
 Coeff:      0.532D-04 0.164D+00 0.725D-01 0.282D+00 0.481D+00
 Gap=     0.165 Goal=   None    Shift=    0.000
 RMSDP=5.23D-05 MaxDP=1.26D-03 DE=-2.81D-04 OVMax= 2.38D-03

 Cycle   6  Pass 1  IDiag  1:
 RMSU=  1.85D-05    CP:  9.73D-01  8.70D-01  2.79D-01  5.95D-01  4.98D-01
 E= -399.134635211014     Delta-E=       -0.000040625806 Rises=F Damp=F
 DIIS: error= 1.58D-04 at cycle   6 NSaved=   6.
 NSaved= 6 IEnMin= 6 EnMin= -399.134635211014     IErMin= 6 ErrMin= 1.58D-04
 ErrMax= 1.58D-04  0.00D+00 EMaxC= 1.00D-01 BMatC= 3.28D-06 BMatP= 6.16D-05
 IDIUse=3 WtCom= 9.98D-01 WtEn= 1.58D-03
 Coeff-Com:  0.188D-03 0.763D-01 0.354D-01 0.147D+00 0.300D+00 0.441D+00
 Coeff-En:   0.000D+00 0.000D+00 0.000D+00 0.000D+00 0.000D+00 0.100D+01
 Coeff:      0.187D-03 0.761D-01 0.353D-01 0.147D+00 0.300D+00 0.442D+00
 Gap=     0.165 Goal=   None    Shift=    0.000
 RMSDP=1.08D-05 MaxDP=6.19D-04 DE=-4.06D-05 OVMax= 4.11D-04

 Cycle   7  Pass 1  IDiag  1:
 RMSU=  5.16D-06    CP:  9.73D-01  8.68D-01  2.88D-01  5.86D-01  5.04D-01
                    CP:  7.29D-01
 E= -399.134638056880     Delta-E=       -0.000002845866 Rises=F Damp=F
 DIIS: error= 1.22D-05 at cycle   7 NSaved=   7.
 NSaved= 7 IEnMin= 7 EnMin= -399.134638056880     IErMin= 7 ErrMin= 1.22D-05
 ErrMax= 1.22D-05  0.00D+00 EMaxC= 1.00D-01 BMatC= 4.83D-08 BMatP= 3.28D-06
 IDIUse=1 WtCom= 1.00D+00 WtEn= 0.00D+00
 Coeff-Com: -0.366D-05 0.154D-01 0.791D-02 0.328D-01 0.772D-01 0.162D+00
 Coeff-Com:  0.705D+00
 Coeff:     -0.366D-05 0.154D-01 0.791D-02 0.328D-01 0.772D-01 0.162D+00
 Coeff:      0.705D+00
 Gap=     0.165 Goal=   None    Shift=    0.000
 RMSDP=2.31D-06 MaxDP=1.34D-04 DE=-2.85D-06 OVMax= 5.91D-05

 Cycle   8  Pass 1  IDiag  1:
 RMSU=  1.14D-06    CP:  9.73D-01  8.68D-01  2.89D-01  5.90D-01  5.11D-01
                    CP:  7.11D-01  9.16D-01
 E= -399.134638082660     Delta-E=       -0.000000025780 Rises=F Damp=F
 DIIS: error= 7.29D-06 at cycle   8 NSaved=   8.
 NSaved= 8 IEnMin= 8 EnMin= -399.134638082660     IErMin= 8 ErrMin= 7.29D-06
 ErrMax= 7.29D-06  0.00D+00 EMaxC= 1.00D-01 BMatC= 1.51D-08 BMatP= 4.83D-08
 IDIUse=1 WtCom= 1.00D+00 WtEn= 0.00D+00
 Coeff-Com: -0.308D-04 0.371D-02 0.204D-02 0.941D-02 0.242D-01 0.655D-01
 Coeff-Com:  0.424D+00 0.471D+00
 Coeff:     -0.308D-04 0.371D-02 0.204D-02 0.941D-02 0.242D-01 0.655D-01
 Coeff:      0.424D+00 0.471D+00
 Gap=     0.165 Goal=   None    Shift=    0.000
 RMSDP=7.41D-07 MaxDP=4.60D-05 DE=-2.58D-08 OVMax= 2.04D-05

 Cycle   9  Pass 1  IDiag  1:
 RMSU=  3.19D-07    CP:  9.73D-01  8.68D-01  2.89D-01  5.89D-01  5.12D-01
                    CP:  7.22D-01  9.07D-01  7.18D-01
 E= -399.134638094245     Delta-E=       -0.000000011585 Rises=F Damp=F
 DIIS: error= 2.23D-06 at cycle   9 NSaved=   9.
 NSaved= 9 IEnMin= 9 EnMin= -399.134638094245     IErMin= 9 ErrMin= 2.23D-06
 ErrMax= 2.23D-06  0.00D+00 EMaxC= 1.00D-01 BMatC= 5.70D-10 BMatP= 1.51D-08
 IDIUse=1 WtCom= 1.00D+00 WtEn= 0.00D+00
 Coeff-Com: -0.924D-05 0.771D-03 0.283D-03 0.235D-02 0.534D-02 0.176D-01
 Coeff-Com:  0.123D+00 0.174D+00 0.677D+00
 Coeff:     -0.924D-05 0.771D-03 0.283D-03 0.235D-02 0.534D-02 0.176D-01
 Coeff:      0.123D+00 0.174D+00 0.677D+00
 Gap=     0.165 Goal=   None    Shift=    0.000
 RMSDP=2.44D-07 MaxDP=1.82D-05 DE=-1.16D-08 OVMax= 9.39D-06

 Cycle  10  Pass 1  IDiag  1:
 RMSU=  9.76D-08    CP:  9.73D-01  8.68D-01  2.89D-01  5.89D-01  5.11D-01
[...]
    11  H    2.143155   1.096917   2.163153   2.530544   2.215334
    12  H    2.840513   2.173307   1.105641   2.107076   2.717252
    13  H    2.603013   2.163127   1.108294   2.093531   3.520474
    14  H    4.428317   3.232018   1.956917   0.973346   3.894942
                    6          7          8          9         10
     6  O    0.000000
     7  O    2.278844   0.000000
     8  H    3.094359   4.144394   0.000000
     9  H    1.598494   3.333108   1.745971   0.000000
    10  H    3.190067   4.351007   1.665695   1.760421   0.000000
    11  H    3.165425   2.722230   2.288054   2.772678   2.837752
    12  H    3.264511   3.290097   3.790799   3.072491   2.711977
    13  H    4.189412   4.182856   3.226050   3.407545   2.270723
    14  H    4.919497   3.826876   5.131500   4.909237   4.429674
                   11         12         13         14
    11  H    0.000000
    12  H    3.067869   0.000000
    13  H    2.588177   1.792162   0.000000
    14  H    3.481488   2.260160   2.436755   0.000000
 Stoichiometry    C3H7NO3
 Framework group  C1[X(C3H7NO3)]
 Deg. of freedom    36
 Full point group                 C1      NOp   1
 Largest Abelian subgroup         C1      NOp   1
 Largest concise Abelian subgroup C1      NOp   1
                         Standard orientation:                         
 ---------------------------------------------------------------------
 Center     Atomic      Atomic             Coordinates (Angstroms)
 Number     Number       Type             X           Y           Z
 ---------------------------------------------------------------------
      1          7           0        0.714453    1.717125   -0.216388
      2          6           0       -0.095692    0.463817   -0.441041
      3          6           0       -1.370512    0.510660    0.415065
      4          8           0       -2.265661   -0.491663   -0.070615
      5          6           0        0.886831   -0.699415   -0.037141
      6          8           0        1.953023   -0.280329    0.541440
      7          8           0        0.550518   -1.870696   -0.293332
      8          1           0        1.002127    2.171342   -1.089562
      9          1           0        1.572075    1.249857    0.279541
     10          1           0        0.258853    2.417899    0.380572
     11          1           0       -0.371950    0.388448   -1.499921
     12          1           0       -1.110259    0.349801    1.477531
     13          1           0       -1.824721    1.517177    0.320543
     14          1           0       -2.954097   -0.623268    0.604765
 ---------------------------------------------------------------------
 Rotational constants (GHZ):           3.4609353           2.2777444           1.5179438
 Standard basis: TZVP (5D, 7F)
 There are   182 symmetry adapted cartesian basis functions of A   symmetry.
 There are   175 symmetry adapted basis functions of A   symmetry.
   175 basis functions,   301 primitive gaussians,   182 cartesian basis functions
    28 alpha electrons       28 beta electrons
       nuclear repulsion energy       322.2547627673 Hartrees.
 NAtoms=   14 NActive=   14 NUniq=   14 SFac= 1.00D+00 NAtFMM=   60 NAOKFM=F Big=F
 Integral buffers will be    131072 words long.
 Raffenetti 2 integral format.
 Two-electron integral symmetry is turned on.
 Warning! Using old PCM defaults because the COSMOthermo output has been requested.
 These settings can be overridden by following keywords.
 ------------------------------------------------------------------------------
 Polarizable Continuum Model (PCM)
 =================================
 Model                : C-PCM.
 Atomic radii         : Klamt.
 XCosmo               : -1.000 (infinite dielectric limit)
 Polarization charges : Electronic and nuclear charges.
 Charge compensation  : Type 3 (Electronic density weighted correction).
 Solution method      : On-the-fly selection.
 Cavity type          : VdW (van der Waals Surface) (Alpha=1.000).
 Cavity algorithm     : GePol (No added spheres)
                        Default sphere list used, NSphG=   14.
                        Tesserae with average area of 0.200 Ang**2.
                        Smoothing algorithm: None.
                        Polarization charges: point-like.
                        Self-potential: constant (ISelfS= 1).
                        Self-field    : global E.n sum rule (ISelfD= 3).
 Solvent              : Water, Eps=  78.355300 Eps(inf)=   1.777849
 ------------------------------------------------------------------------------
 Spheres list:
 ISph  on   Nord     Re0    Alpha      Xe            Ye            Ze
    1   N      1    1.8300  1.000      0.714453      1.717125     -0.216388
    2   C      2    2.0000  1.000     -0.095692      0.463817     -0.441041
    3   C      3    2.0000  1.000     -1.370512      0.510660      0.415065
    4   O      4    1.7200  1.000     -2.265661     -0.491663     -0.070615
    5   C      5    2.0000  1.000      0.886831     -0.699415     -0.037141
    6   O      6    1.7200  1.000      1.953023     -0.280329      0.541440
    7   O      7    1.7200  1.000      0.550518     -1.870696     -0.293332
    8   H      8    1.3000  1.000      1.002127      2.171342     -1.089562
    9   H      9    1.3000  1.000      1.572075      1.249857      0.279541
   10   H     10    1.3000  1.000      0.258853      2.417899      0.380572
   11   H     11    1.3000  1.000     -0.371950      0.388448     -1.499921
   12   H     12    1.3000  1.000     -1.110259      0.349801      1.477531
   13   H     13    1.3000  1.000     -1.824721      1.517177      0.320543
   14   H     14    1.3000  1.000     -2.954097     -0.623268      0.604765
 ------------------------------------------------------------------------------
 One-electron integrals computed using PRISM.
 PrsmSu:  requested number of processors reduced to:  29 ShMem   1 Linda.
 NBasis=   175 RedAO= T EigKep=  2.89D-04  NBF=   175
 NBsUse=   175 1.00D-06 EigRej= -1.00D+00 NBFU=   175
 Initial guess from the checkpoint file:  "MTCFGRXMJLQNBG-UWTATZPHSA-N.chk"
 B after Tr=    -0.000000   -0.000000   -0.000000
         Rot=    1.000000   -0.000000   -0.000000   -0.000000 Ang=   0.00 deg.
 Requested convergence on RMS density matrix=1.00D-08 within 128 cycles.
 Requested convergence on MAX density matrix=1.00D-06.
 Requested convergence on             energy=1.00D-06.
 No special actions if energy rises.
 Inv3:  Mode=1 IEnd=     2566875.
 Iteration    1 A*A^-1 deviation from unit magnitude is 8.88D-15 for    106.
 Iteration    1 A*A^-1 deviation from orthogonality  is 9.77D-15 for    793    106.
 Iteration    1 A^-1*A deviation from unit magnitude is 5.33D-15 for    106.
 Iteration    1 A^-1*A deviation from orthogonality  is 2.22D-15 for    793    106.
 Error on nuclear    polarization charges =  0.00868
 Error on electronic polarization charges = -0.03254
 SCF Done:  E(RB-P86) =  -399.148614032     A.U. after   11 cycles
            NFock= 11  Conv=0.96D-08     -V/T= 2.0044
 --------------------------------------------------------------------
 Variational C-PCM results
 =========================
 <psi(f)|   H    |psi(f)>                     (a.u.) =    -399.069453
 <psi(f)|H+V(f)/2|psi(f)>                     (a.u.) =    -399.148614
 Total free energy in solution:
 - with all non electrostatic terms           (a.u.) =    -399.139709
 --------------------------------------------------------------------
 (Polarized solute)-Solvent               (kcal/mol) =     -49.67
 --------------------------------------------------------------------
 Cavitation energy                        (kcal/mol) =      17.68
 Dispersion energy                        (kcal/mol) =     -13.26
 Repulsion energy                         (kcal/mol) =       1.17
 Total non electrostatic                  (kcal/mol) =       5.59
 --------------------------------------------------------------------
 Partition over spheres:
 Sphere  on Atom  Surface  Charge   GEl     GCav    GDR
    1      N1      10.10  -0.141   -4.75    1.23   -0.71
    2      C2       5.20  -0.040   -0.97    0.61   -0.12
    3      C3      11.19  -0.048   -1.20    1.31   -0.53
    4      O4      15.63   0.178   -3.68    1.94   -1.23
    5      C5      10.71   0.042   -1.61    1.26   -0.60
    6      O6      17.47   0.262   -6.77    2.17   -1.68
    7      O7      20.01   0.353  -13.63    2.49   -1.67
    8      H8       8.14  -0.150   -5.73    1.15   -1.06
    9      H9       3.58  -0.043   -0.77    0.50   -0.31
   10      H10      7.36  -0.138   -5.73    1.04   -0.83
   11      H11      6.50  -0.054   -0.64    0.92   -0.81
   12      H12      6.55  -0.045   -0.57    0.92   -0.79
   13      H13      6.56  -0.044   -1.22    0.93   -0.76
   14      H14      8.54  -0.131   -2.40    1.21   -0.98
 --------------------------------------------------------------------
 - cavitation energy not included in the total energy.
 - dispersion energy not included in the total energy.
 - repulsion  energy not included in the total energy.
 After PCM corrections, the energy is  -399.148614032     a.u.
 --------------------------------------------------------------------
 Writing COSMO formatted file "MTCFGRXMJLQNBG-UWTATZPHSA-N.cosmo"
 Recomputed dielectric energy= -0.079387 old= -0.079161 diff=-2.26D-04

 **********************************************************************

            Population analysis using the SCF Density.

 **********************************************************************

 Orbital symmetries:
       Occupied  (A) (A) (A) (A) (A) (A) (A) (A) (A) (A) (A) (A)
                 (A) (A) (A) (A) (A) (A) (A) (A) (A) (A) (A) (A)
                 (A) (A) (A) (A)
       Virtual   (A) (A) (A) (A) (A) (A) (A) (A) (A) (A) (A) (A)
                 (A) (A) (A) (A) (A) (A) (A) (A) (A) (A) (A) (A)
                 (A) (A) (A) (A) (A) (A) (A) (A) (A) (A) (A) (A)
                 (A) (A) (A) (A) (A) (A) (A) (A) (A) (A) (A) (A)
                 (A) (A) (A) (A) (A) (A) (A) (A) (A) (A) (A) (A)
                 (A) (A) (A) (A) (A) (A) (A) (A) (A) (A) (A) (A)
                 (A) (A) (A) (A) (A) (A) (A) (A) (A) (A) (A) (A)
                 (A) (A) (A) (A) (A) (A) (A) (A) (A) (A) (A) (A)
                 (A) (A) (A) (A) (A) (A) (A) (A) (A) (A) (A) (A)
                 (A) (A) (A) (A) (A) (A) (A) (A) (A) (A) (A) (A)
                 (A) (A) (A) (A) (A) (A) (A) (A) (A) (A) (A) (A)
                 (A) (A) (A) (A) (A) (A) (A) (A) (A) (A) (A) (A)
                 (A) (A) (A)
 The electronic state is 1-A.
 Alpha  occ. eigenvalues --  -18.78016 -18.74347 -18.73323 -14.08288  -9.99830
 Alpha  occ. eigenvalues --   -9.95886  -9.95750  -0.96803  -0.94648  -0.89973
 Alpha  occ. eigenvalues --   -0.87265  -0.69236  -0.59137  -0.51653  -0.50015
 Alpha  occ. eigenvalues --   -0.47916  -0.47109  -0.42570  -0.41129  -0.38258
 Alpha  occ. eigenvalues --   -0.37538  -0.35984  -0.34670  -0.30816  -0.25272
 Alpha  occ. eigenvalues --   -0.24378  -0.23460  -0.21305
 Alpha virt. eigenvalues --   -0.01531   0.00727   0.02538   0.05524   0.07027
 Alpha virt. eigenvalues --    0.08000   0.09813   0.10630   0.11268   0.13192
 Alpha virt. eigenvalues --    0.15106   0.16038   0.18654   0.20154   0.21407
 Alpha virt. eigenvalues --    0.24833   0.25936   0.28107   0.28659   0.29637
 Alpha virt. eigenvalues --    0.31142   0.32362   0.33525   0.35015   0.35828
 Alpha virt. eigenvalues --    0.38534   0.39842   0.40373   0.41662   0.42212
 Alpha virt. eigenvalues --    0.43039   0.43539   0.45067   0.45730   0.48346
 Alpha virt. eigenvalues --    0.49204   0.50276   0.51500   0.53435   0.55149
 Alpha virt. eigenvalues --    0.57398   0.59661   0.63421   0.65956   0.71922
 Alpha virt. eigenvalues --    0.75756   0.78417   0.85422   0.90238   1.07879
 Alpha virt. eigenvalues --    1.09631   1.20894   1.22114   1.24574   1.26285
 Alpha virt. eigenvalues --    1.28931   1.29410   1.32155   1.33527   1.36338
 Alpha virt. eigenvalues --    1.39227   1.41859   1.43800   1.45148   1.47266
 Alpha virt. eigenvalues --    1.48574   1.51187   1.53807   1.56231   1.58721
 Alpha virt. eigenvalues --    1.60870   1.63054   1.64049   1.65697   1.70675
 Alpha virt. eigenvalues --    1.75975   1.77739   1.80849   1.82326   1.84808
 Alpha virt. eigenvalues --    1.86470   1.87738   1.88964   1.95554   2.00423
 Alpha virt. eigenvalues --    2.03261   2.09603   2.17144   2.18421   2.22408
 Alpha virt. eigenvalues --    2.24282   2.25339   2.33917   2.37468   2.40647
 Alpha virt. eigenvalues --    2.42212   2.46473   2.47933   2.51612   2.51772
 Alpha virt. eigenvalues --    2.52916   2.53396   2.57177   2.57874   2.58727
 Alpha virt. eigenvalues --    2.59017   2.60495   2.62345   2.63393   2.65777
 Alpha virt. eigenvalues --    2.67423   2.68629   2.72269   2.73674   2.78194
 Alpha virt. eigenvalues --    2.80528   2.85150   2.85821   2.92625   2.93133
 Alpha virt. eigenvalues --    2.94738   2.96235   3.01407   3.07177   3.10046
 Alpha virt. eigenvalues --    3.12252   3.15509   3.17407   3.19044   3.26472
 Alpha virt. eigenvalues --    3.28974   3.29948   3.41976   3.61598   3.76912
 Alpha virt. eigenvalues --    3.80871   3.85373   4.01254   4.12243   4.17464
 Alpha virt. eigenvalues --   21.60142  21.73207  21.80926  31.38965  43.05552
 Alpha virt. eigenvalues --   43.12057  43.20076
          Condensed to atoms (all electrons):
               1          2          3          4          5          6
     1  N    6.437682  -0.108668   0.073084   0.005209   0.015198  -0.064539
     2  C   -0.108668   6.863752  -0.212260  -0.101428  -0.125674  -0.224637
     3  C    0.073084  -0.212260   5.309440   0.313291   0.023869  -0.015737
     4  O    0.005209  -0.101428   0.313291   7.971931   0.001469   0.000548
     5  C    0.015198  -0.125674   0.023869   0.001469   4.838135   0.483779
     6  O   -0.064539  -0.224637  -0.015737   0.000548   0.483779   8.272447
     7  O    0.007370  -0.214349   0.026717  -0.000260   0.617060  -0.111516
     8  H    0.337495  -0.005763   0.000554  -0.000071   0.003263   0.002340
     9  H    0.282017  -0.056350   0.001047  -0.000157  -0.012567   0.114816
    10  H    0.345310  -0.026283   0.002328   0.000159   0.002803   0.001549
    11  H   -0.036218   0.390012  -0.060734   0.012452  -0.018774   0.005797
    12  H   -0.008270   0.035940   0.312388  -0.042575  -0.013128   0.007561
    13  H    0.012108  -0.117511   0.470860  -0.050855   0.006377  -0.000612
    14  H   -0.000355   0.010987  -0.033659   0.306699   0.001361   0.000054
               7          8          9         10         11         12
     1  N    0.007370   0.337495   0.282017   0.345310  -0.036218  -0.008270
     2  C   -0.214349  -0.005763  -0.056350  -0.026283   0.390012   0.035940
     3  C    0.026717   0.000554   0.001047   0.002328  -0.060734   0.312388
     4  O   -0.000260  -0.000071  -0.000157   0.000159   0.012452  -0.042575
     5  C    0.617060   0.003263  -0.012567   0.002803  -0.018774  -0.013128
     6  O   -0.111516   0.002340   0.114816   0.001549   0.005797   0.007561
     7  O    8.119646   0.000087   0.004859  -0.000251   0.009391  -0.002277
     8  H    0.000087   0.352102  -0.004380  -0.010588  -0.003862  -0.000183
     9  H    0.004859  -0.004380   0.378022  -0.005578   0.004022   0.000998
    10  H   -0.000251  -0.010588  -0.005578   0.363657   0.001249   0.000609
    11  H    0.009391  -0.003862   0.004022   0.001249   0.496489   0.013750
    12  H   -0.002277  -0.000183   0.000998   0.000609   0.013750   0.607917
    13  H   -0.000594   0.000293  -0.000346   0.003959  -0.015292  -0.061225
    14  H    0.000544   0.000006   0.000033  -0.000091  -0.000480  -0.007230
              13         14
     1  N    0.012108  -0.000355
     2  C   -0.117511   0.010987
     3  C    0.470860  -0.033659
     4  O   -0.050855   0.306699
     5  C    0.006377   0.001361
     6  O   -0.000612   0.000054
     7  O   -0.000594   0.000544
     8  H    0.000293   0.000006
     9  H   -0.000346   0.000033
    10  H    0.003959  -0.000091
    11  H   -0.015292  -0.000480
    12  H   -0.061225  -0.007230
    13  H    0.590786   0.000136
    14  H    0.000136   0.401034
 Mulliken charges:
               1
     1  N   -0.297424
     2  C   -0.107769
     3  C   -0.211188
     4  O   -0.416413
     5  C    0.176828
     6  O   -0.471850
     7  O   -0.456427
     8  H    0.328708
     9  H    0.293563
    10  H    0.321168
    11  H    0.202198
    12  H    0.155727
    13  H    0.161918
    14  H    0.320962
 Sum of Mulliken charges =  -0.00000
 Mulliken charges with hydrogens summed into heavy atoms:
               1
     1  N    0.646015
     2  C    0.094429
     3  C    0.106456
     4  O   -0.095452
     5  C    0.176828
     6  O   -0.471850
     7  O   -0.456427
 Electronic spatial extent (au):  <R**2>=            786.3278
 Charge=             -0.0000 electrons
 Dipole moment (field-independent basis, Debye):
    X=             -3.8699    Y=             12.8129    Z=              0.1371  Tot=             13.3852
 Quadrupole moment (field-independent basis, Debye-Ang):
   XX=            -45.2263   YY=            -38.9262   ZZ=            -38.8369
   XY=              7.7500   XZ=             -9.3695   YZ=             -3.6828
 Traceless Quadrupole moment (field-independent basis, Debye-Ang):
   XX=             -4.2298   YY=              2.0702   ZZ=              2.1595
   XY=              7.7500   XZ=             -9.3695   YZ=             -3.6828
 Octapole moment (field-independent basis, Debye-Ang**2):
  XXX=            -40.9206  YYY=             60.9718  ZZZ=             -3.2291  XYY=              0.9675
  XXY=             11.3960  XXZ=              6.8754  XZZ=             -3.4084  YZZ=              7.7663
  YYZ=              0.4343  XYZ=              0.5192
 Hexadecapole moment (field-independent basis, Debye-Ang**3):
 XXXX=           -484.4932 YYYY=           -314.5536 ZZZZ=            -82.2135 XXXY=             40.9266
 XXXZ=            -58.6646 YYYX=             39.6184 YYYZ=            -14.7377 ZZZX=             -8.8376
 ZZZY=             -8.3651 XXYY=           -135.9693 XXZZ=            -97.6886 YYZZ=            -63.5271
 XXYZ=             -8.5232 YYXZ=             -8.3134 ZZXY=             10.1894
 N-N= 3.222547627673D+02 E-N=-1.581860077480D+03  KE= 3.973868066284D+02
 Unable to Open any file for archive entry.
 1\1\GINC-TCN1706\SP\RBP86\TZVP\C3H7N1O3\ELENAA\22-Feb-2021\0\\# BP86/T
 ZVP SCRF=COSMORS geom=CHECKPOINT guess=CHECKPOINT\\COSMO-file for #MTC
 FGRXMJLQNBG-UWTATZPHSA-N\\0,1\N,0,2.4369630603,-2.6014932881,-1.525133
 3884\C,0,1.4618906583,-2.488493679,-0.3788126601\C,0,2.0338882566,-1.5
 53282661,0.6975118044\O,0,0.9696878012,-1.1931860055,1.5804825316\C,0,
 1.2831815371,-3.9740632001,0.1138761454\O,0,2.12637083,-4.7848989307,-
 0.4140725185\O,0,0.3870323321,-4.2160203081,0.9439436327\H,0,2.0002116
 866,-2.4497009433,-2.440397849\H,0,2.6997926969,-3.6562279193,-1.39001
 94237\H,0,3.2567580684,-1.9872975182,-1.4495323055\H,0,0.509962892,-2.
 0832805815,-0.7433160029\H,0,2.8573395779,-2.0620828533,1.2318274468\H
 ,0,2.4495492811,-0.6535737322,0.2014613312\H,0,1.3688113216,-0.8073883
 797,2.3800212561\\Version=ES64L-G16RevC.01\State=1-A\HF=-399.148614\RM
 SD=9.603e-09\Dipole=2.613207,3.7647317,-2.5942867\Quadrupole=-1.631635
 4,-8.428671,10.0603064,2.4118379,1.4581602,1.1136783\PG=C01 [X(C3H7N1O
 3)]\\@
 The archive entry for this job was punched.


 IT IS WELL TO REMEMBER THAT MAN IS A PART OF NATURE AND THAT HIS WORKS,
 WHATEVER THEY MAY BE, ARE NO MORE "UNNATURAL" THAN 
 THE FLIGHT OF AN EAGLE OR THE PASSAGE OF A TORNADO.

                                    -- CHARLES MCCARRY IN "THE GREAT SOUTHWEST"
 Job cpu time:       0 days  0 hours  3 minutes 23.4 seconds.
 Elapsed time:       0 days  0 hours  0 minutes  6.7 seconds.
 File lengths (MBytes):  RWF=     30 Int=      0 D2E=      0 Chk=      6 Scr=      1
 Normal termination of Gaussian 16 at Mon Feb 22 21:17:27 2021.
