 Entering Gaussian System, Link 0=g16
 Input=MUMGGOZAMZWBJJ-DYKIIFRCSA-N.gjf
 Output=MUMGGOZAMZWBJJ-DYKIIFRCSA-N.log
 Initial command:
 /sw/arch/RedHatEnterpriseServer7/EB_production/2019/software/Gaussian/g16.c01/l1.exe "/scratch-local/elenaa.9715240/Gau-29024.inp" -scrdir="/scratch-local/elenaa.9715240/"
 Entering Link 1 = /sw/arch/RedHatEnterpriseServer7/EB_production/2019/software/Gaussian/g16.c01/l1.exe PID=     29025.
  
 Copyright (c) 1988-2019, Gaussian, Inc.  All Rights Reserved.
  
 This is part of the Gaussian(R) 16 program.  It is based on
 the Gaussian(R) 09 system (copyright 2009, Gaussian, Inc.),
 the Gaussian(R) 03 system (copyright 2003, Gaussian, Inc.),
 the Gaussian(R) 98 system (copyright 1998, Gaussian, Inc.),
 the Gaussian(R) 94 system (copyright 1995, Gaussian, Inc.),
 the Gaussian 92(TM) system (copyright 1992, Gaussian, Inc.),
 the Gaussian 90(TM) system (copyright 1990, Gaussian, Inc.),
 the Gaussian 88(TM) system (copyright 1988, Gaussian, Inc.),
 the Gaussian 86(TM) system (copyright 1986, Carnegie Mellon
 University), and the Gaussian 82(TM) system (copyright 1983,
 Carnegie Mellon University). Gaussian is a federally registered
 trademark of Gaussian, Inc.
  
 This software contains proprietary and confidential information,
 including trade secrets, belonging to Gaussian, Inc.
  
 This software is provided under written license and may be
 used, copied, transmitted, or stored only in accord with that
 written license.
  
 The following legend is applicable only to US Government
 contracts under FAR:
  
                    RESTRICTED RIGHTS LEGEND
  
 Use, reproduction and disclosure by the US Government is
 subject to restrictions as set forth in subparagraphs (a)
 and (c) of the Commercial Computer Software - Restricted
 Rights clause in FAR 52.227-19.
  
 Gaussian, Inc.
 340 Quinnipiac St., Bldg. 40, Wallingford CT 06492
  
  
 ---------------------------------------------------------------
 Warning -- This program may not be used in any manner that
 competes with the business of Gaussian, Inc. or will provide
 assistance to any competitor of Gaussian, Inc.  The licensee
 of this program is prohibited from giving any competitor of
 Gaussian, Inc. access to this program.  By using this program,
 the user acknowledges that Gaussian, Inc. is engaged in the
 business of creating and licensing software in the field of
 computational chemistry and represents and warrants to the
 licensee that it is not a competitor of Gaussian, Inc. and that
 it will not use this program in any manner prohibited above.
 ---------------------------------------------------------------
  

 Cite this work as:
 Gaussian 16, Revision C.01,
 M. J. Frisch, G. W. Trucks, H. B. Schlegel, G. E. Scuseria, 
 M. A. Robb, J. R. Cheeseman, G. Scalmani, V. Barone, 
 G. A. Petersson, H. Nakatsuji, X. Li, M. Caricato, A. V. Marenich, 
 J. Bloino, B. G. Janesko, R. Gomperts, B. Mennucci, H. P. Hratchian, 
 J. V. Ortiz, A. F. Izmaylov, J. L. Sonnenberg, D. Williams-Young, 
 F. Ding, F. Lipparini, F. Egidi, J. Goings, B. Peng, A. Petrone, 
 T. Henderson, D. Ranasinghe, V. G. Zakrzewski, J. Gao, N. Rega, 
 G. Zheng, W. Liang, M. Hada, M. Ehara, K. Toyota, R. Fukuda, 
 J. Hasegawa, M. Ishida, T. Nakajima, Y. Honda, O. Kitao, H. Nakai, 
 T. Vreven, K. Throssell, J. A. Montgomery, Jr., J. E. Peralta, 
 F. Ogliaro, M. J. Bearpark, J. J. Heyd, E. N. Brothers, K. N. Kudin, 
 V. N. Staroverov, T. A. Keith, R. Kobayashi, J. Normand, 
 K. Raghavachari, A. P. Rendell, J. C. Burant, S. S. Iyengar, 
 J. Tomasi, M. Cossi, J. M. Millam, M. Klene, C. Adamo, R. Cammi, 
 J. W. Ochterski, R. L. Martin, K. Morokuma, O. Farkas, 
 J. B. Foresman, and D. J. Fox, Gaussian, Inc., Wallingford CT, 2019.
 
 ******************************************
 Gaussian 16:  ES64L-G16RevC.01  3-Jul-2019
                22-Feb-2021 
 ******************************************
 %chk=MUMGGOZAMZWBJJ-DYKIIFRCSA-N.chk
 %NProcShared=32
 Will use up to   32 processors via shared memory.
 -------------------------------------------------------------
 #P BP86/TZVP EmpiricalDispersion=GD3 SCRF=(Solvent=Water) Opt
 -------------------------------------------------------------
 1/18=20,19=15,26=3,38=1/1,3;
 2/9=110,12=2,17=6,18=5,40=1/2;
 3/5=19,7=101,11=2,25=1,30=1,70=2201,71=1,72=1,74=404,124=31/1,2,3;
 4//1;
 5/5=2,38=5,53=1/2;
 6/7=2,8=2,9=2,10=2,28=1/1;
 7//1,2,3,16;
 1/18=20,19=15,26=3/3(2);
 2/9=110/2;
 99//99;
 2/9=110/2;
 3/5=19,7=101,11=2,25=1,30=1,70=2205,71=1,72=1,74=404,124=31/1,2,3;
 4/5=5,16=3,69=1/1;
 5/5=2,38=5,53=1/2;
 7//1,2,3,16;
 1/18=20,19=15,26=3/3(-5);
 2/9=110/2;
 6/7=2,8=2,9=2,10=2,19=2,28=1/1;
 99/9=1/99;
 Leave Link    1 at Mon Feb 22 21:13:46 2021, MaxMem=           0 cpu:               1.9 elap:               0.1
 (Enter /sw/arch/RedHatEnterpriseServer7/EB_production/2019/software/Gaussian/g16.c01/l101.exe)
 -------------------------------------
 Particle #MUMGGOZAMZWBJJ-DYKIIFRCSA-N
 -------------------------------------
 Symbolic Z-matrix:
 Charge =  0 Multiplicity = 1
 C                    -7.41339  -0.84039   2.63765 
 C                    -6.24898  -0.95012   3.69578 
 C                    -5.50254   0.42167   3.80626 
 C                    -4.66297   0.75223   2.53161 
 C                    -3.70122  -0.40343   2.06143 
 C                    -4.42383  -1.80522   2.04401 
 C                    -3.37306  -2.91359   1.75576 
 C                    -2.64832  -2.64733   0.41846 
 C                    -2.04994  -1.30455   0.34637 
 C                    -0.78632  -1.19235  -0.13039 
 C                    -0.15138   0.01789  -0.34894 
 O                     0.9988    0.02921  -0.84566 
 C                    -0.81561   1.30748  -0.07378 
 C                    -1.93346   1.1374    0.98497 
 C                    -2.87246  -0.10987   0.72674 
 C                    -3.80974   0.21616  -0.49211 
 C                    -5.16547  -2.03612   3.39957 
 C                    -5.88829  -3.37544   3.66202 
 C                    -6.85644  -3.05737   4.83237 
 C                    -6.815    -1.51656   5.03763 
 O                    -8.08911  -0.9942    5.41432 
 H                    -7.04607  -0.58032   1.64682 
 H                    -7.97073  -1.77365   2.54198 
 H                    -8.12103  -0.06334   2.93526 
 H                    -6.22307   1.22478   3.98315 
 H                    -4.82746   0.40733   4.6666 
 H                    -4.074     1.64353   2.75958 
 H                    -5.3489    1.02299   1.73023 
 H                    -2.95808  -0.47883   2.86641 
 H                    -5.15892  -1.83756   1.23864 
 H                    -2.63661  -2.95621   2.56433 
 H                    -3.86047  -3.89003   1.69622 
 H                    -3.36476  -2.74795  -0.40058 
 H                    -1.91327  -3.44789   0.28705 
 H                    -0.27613  -2.01402  -0.36648 
 H                    -1.23234   1.69478  -1.00695 
 H                    -0.0833    2.03223   0.29322 
 H                    -1.43736   1.03196   1.95531 
 H                    -2.5106    2.06388   1.0234 
 H                    -4.56808  -0.55296  -0.63908 
 H                    -3.23902   0.29221  -1.42074 
 H                    -4.32549   1.16724  -0.35469 
 H                    -4.3829   -1.98089   4.17226 
 H                    -5.17935  -4.16382   3.93307 
 H                    -6.44204  -3.69618   2.77601 
 H                    -7.86791  -3.39261   4.58206 
 H                    -6.54254  -3.57162   5.7454 
 H                    -6.12656  -1.29167   5.85973 
 H                    -7.94643  -0.02997   5.52149 
 
 ITRead=  0  0  0  0  0  0  0  0  0  0  0  0  0  0  0  0  0  0  0  0
 ITRead=  0  0  0  0  0  0  0  0  0  0  0  0  0  0  0  0  0  0  0  0
 ITRead=  0  0  0  0  0  0  0  0  0
 MicOpt= -1 -1 -1 -1 -1 -1 -1 -1 -1 -1 -1 -1 -1 -1 -1 -1 -1 -1 -1 -1
 MicOpt= -1 -1 -1 -1 -1 -1 -1 -1 -1 -1 -1 -1 -1 -1 -1 -1 -1 -1 -1 -1
 MicOpt= -1 -1 -1 -1 -1 -1 -1 -1 -1
 NAtoms=     49 NQM=       49 NQMF=       0 NMMI=      0 NMMIF=      0
                NMic=       0 NMicF=      0.
                    Isotopes and Nuclear Properties:
 (Nuclear quadrupole moments (NQMom) in fm**2, nuclear magnetic moments (NMagM)
  in nuclear magnetons)

  Atom         1           2           3           4           5           6           7           8           9          10
 IAtWgt=          12          12          12          12          12          12          12          12          12          12
 AtmWgt=  12.0000000  12.0000000  12.0000000  12.0000000  12.0000000  12.0000000  12.0000000  12.0000000  12.0000000  12.0000000
 NucSpn=           0           0           0           0           0           0           0           0           0           0
 AtZEff=  -0.0000000  -0.0000000  -0.0000000  -0.0000000  -0.0000000  -0.0000000  -0.0000000  -0.0000000  -0.0000000  -0.0000000
 NQMom=    0.0000000   0.0000000   0.0000000   0.0000000   0.0000000   0.0000000   0.0000000   0.0000000   0.0000000   0.0000000
 NMagM=    0.0000000   0.0000000   0.0000000   0.0000000   0.0000000   0.0000000   0.0000000   0.0000000   0.0000000   0.0000000
 AtZNuc=   6.0000000   6.0000000   6.0000000   6.0000000   6.0000000   6.0000000   6.0000000   6.0000000   6.0000000   6.0000000

  Atom        11          12          13          14          15          16          17          18          19          20
 IAtWgt=          12          16          12          12          12          12          12          12          12          12
 AtmWgt=  12.0000000  15.9949146  12.0000000  12.0000000  12.0000000  12.0000000  12.0000000  12.0000000  12.0000000  12.0000000
 NucSpn=           0           0           0           0           0           0           0           0           0           0
 AtZEff=  -0.0000000  -0.0000000  -0.0000000  -0.0000000  -0.0000000  -0.0000000  -0.0000000  -0.0000000  -0.0000000  -0.0000000
 NQMom=    0.0000000   0.0000000   0.0000000   0.0000000   0.0000000   0.0000000   0.0000000   0.0000000   0.0000000   0.0000000
 NMagM=    0.0000000   0.0000000   0.0000000   0.0000000   0.0000000   0.0000000   0.0000000   0.0000000   0.0000000   0.0000000
 AtZNuc=   6.0000000   8.0000000   6.0000000   6.0000000   6.0000000   6.0000000   6.0000000   6.0000000   6.0000000   6.0000000

  Atom        21          22          23          24          25          26          27          28          29          30
 IAtWgt=          16           1           1           1           1           1           1           1           1           1
 AtmWgt=  15.9949146   1.0078250   1.0078250   1.0078250   1.0078250   1.0078250   1.0078250   1.0078250   1.0078250   1.0078250
 NucSpn=           0           1           1           1           1           1           1           1           1           1
 AtZEff=  -0.0000000  -0.0000000  -0.0000000  -0.0000000  -0.0000000  -0.0000000  -0.0000000  -0.0000000  -0.0000000  -0.0000000
 NQMom=    0.0000000   0.0000000   0.0000000   0.0000000   0.0000000   0.0000000   0.0000000   0.0000000   0.0000000   0.0000000
 NMagM=    0.0000000   2.7928460   2.7928460   2.7928460   2.7928460   2.7928460   2.7928460   2.7928460   2.7928460   2.7928460
 AtZNuc=   8.0000000   1.0000000   1.0000000   1.0000000   1.0000000   1.0000000   1.0000000   1.0000000   1.0000000   1.0000000

  Atom        31          32          33          34          35          36          37          38          39          40
 IAtWgt=           1           1           1           1           1           1           1           1           1           1
 AtmWgt=   1.0078250   1.0078250   1.0078250   1.0078250   1.0078250   1.0078250   1.0078250   1.0078250   1.0078250   1.0078250
 NucSpn=           1           1           1           1           1           1           1           1           1           1
 AtZEff=  -0.0000000  -0.0000000  -0.0000000  -0.0000000  -0.0000000  -0.0000000  -0.0000000  -0.0000000  -0.0000000  -0.0000000
 NQMom=    0.0000000   0.0000000   0.0000000   0.0000000   0.0000000   0.0000000   0.0000000   0.0000000   0.0000000   0.0000000
 NMagM=    2.7928460   2.7928460   2.7928460   2.7928460   2.7928460   2.7928460   2.7928460   2.7928460   2.7928460   2.7928460
 AtZNuc=   1.0000000   1.0000000   1.0000000   1.0000000   1.0000000   1.0000000   1.0000000   1.0000000   1.0000000   1.0000000

  Atom        41          42          43          44          45          46          47          48          49
 IAtWgt=           1           1           1           1           1           1           1           1           1
 AtmWgt=   1.0078250   1.0078250   1.0078250   1.0078250   1.0078250   1.0078250   1.0078250   1.0078250   1.0078250
 NucSpn=           1           1           1           1           1           1           1           1           1
 AtZEff=  -0.0000000  -0.0000000  -0.0000000  -0.0000000  -0.0000000  -0.0000000  -0.0000000  -0.0000000  -0.0000000
 NQMom=    0.0000000   0.0000000   0.0000000   0.0000000   0.0000000   0.0000000   0.0000000   0.0000000   0.0000000
 NMagM=    2.7928460   2.7928460   2.7928460   2.7928460   2.7928460   2.7928460   2.7928460   2.7928460   2.7928460
 AtZNuc=   1.0000000   1.0000000   1.0000000   1.0000000   1.0000000   1.0000000   1.0000000   1.0000000   1.0000000
 Leave Link  101 at Mon Feb 22 21:13:46 2021, MaxMem=   104857600 cpu:               3.3 elap:               0.1
 (Enter /sw/arch/RedHatEnterpriseServer7/EB_production/2019/software/Gaussian/g16.c01/l103.exe)

 GradGradGradGradGradGradGradGradGradGradGradGradGradGradGradGradGradGrad
 Berny optimization.
 Initialization pass.
                           ----------------------------
                           !    Initial Parameters    !
                           ! (Angstroms and Degrees)  !
 --------------------------                            --------------------------
 ! Name  Definition              Value          Derivative Info.                !
 --------------------------------------------------------------------------------
 ! R1    R(1,2)                  1.5772         estimate D2E/DX2                !
 ! R2    R(1,22)                 1.0883         estimate D2E/DX2                !
 ! R3    R(1,23)                 1.0912         estimate D2E/DX2                !
 ! R4    R(1,24)                 1.0923         estimate D2E/DX2                !
 ! R5    R(2,3)                  1.5656         estimate D2E/DX2                !
 ! R6    R(2,17)                 1.5624         estimate D2E/DX2                !
 ! R7    R(2,20)                 1.5626         estimate D2E/DX2                !
 ! R8    R(3,4)                  1.5617         estimate D2E/DX2                !
 ! R9    R(3,25)                 1.0934         estimate D2E/DX2                !
 ! R10   R(3,26)                 1.0937         estimate D2E/DX2                !
 ! R11   R(4,5)                  1.5753         estimate D2E/DX2                !
 ! R12   R(4,27)                 1.0924         estimate D2E/DX2                !
 ! R13   R(4,28)                 1.089          estimate D2E/DX2                !
 ! R14   R(5,6)                  1.5772         estimate D2E/DX2                !
 ! R15   R(5,15)                 1.5983         estimate D2E/DX2                !
 ! R16   R(5,29)                 1.0982         estimate D2E/DX2                !
 ! R17   R(6,7)                  1.5542         estimate D2E/DX2                !
 ! R18   R(6,17)                 1.5623         estimate D2E/DX2                !
 ! R19   R(6,30)                 1.0909         estimate D2E/DX2                !
 ! R20   R(7,8)                  1.5442         estimate D2E/DX2                !
 ! R21   R(7,31)                 1.0945         estimate D2E/DX2                !
 ! R22   R(7,32)                 1.093          estimate D2E/DX2                !
 ! R23   R(8,9)                  1.4718         estimate D2E/DX2                !
 ! R24   R(8,33)                 1.0928         estimate D2E/DX2                !
 ! R25   R(8,34)                 1.0947         estimate D2E/DX2                !
 ! R26   R(9,10)                 1.3552         estimate D2E/DX2                !
 ! R27   R(9,15)                 1.4995         estimate D2E/DX2                !
 ! R28   R(10,11)                1.384          estimate D2E/DX2                !
 ! R29   R(10,35)                0.9956         estimate D2E/DX2                !
 ! R30   R(11,12)                1.2529         estimate D2E/DX2                !
 ! R31   R(11,13)                1.4765         estimate D2E/DX2                !
 ! R32   R(13,14)                1.549          estimate D2E/DX2                !
 ! R33   R(13,36)                1.0929         estimate D2E/DX2                !
 ! R34   R(13,37)                1.0937         estimate D2E/DX2                !
 ! R35   R(14,15)                1.5824         estimate D2E/DX2                !
 ! R36   R(14,38)                1.0949         estimate D2E/DX2                !
 ! R37   R(14,39)                1.0922         estimate D2E/DX2                !
 ! R38   R(15,16)                1.5717         estimate D2E/DX2                !
 ! R39   R(16,40)                1.0901         estimate D2E/DX2                !
 ! R40   R(16,41)                1.0926         estimate D2E/DX2                !
 ! R41   R(16,42)                1.0906         estimate D2E/DX2                !
 ! R42   R(17,18)                1.5444         estimate D2E/DX2                !
 ! R43   R(17,43)                1.1011         estimate D2E/DX2                !
 ! R44   R(18,19)                1.5518         estimate D2E/DX2                !
 ! R45   R(18,44)                1.0944         estimate D2E/DX2                !
 ! R46   R(18,45)                1.0929         estimate D2E/DX2                !
 ! R47   R(19,20)                1.555          estimate D2E/DX2                !
 ! R48   R(19,46)                1.0946         estimate D2E/DX2                !
 ! R49   R(19,47)                1.0939         estimate D2E/DX2                !
 ! R50   R(20,21)                1.4276         estimate D2E/DX2                !
 ! R51   R(20,48)                1.0956         estimate D2E/DX2                !
 ! R52   R(21,49)                0.9806         estimate D2E/DX2                !
 ! A1    A(2,1,22)             112.2264         estimate D2E/DX2                !
 ! A2    A(2,1,23)             112.1105         estimate D2E/DX2                !
 ! A3    A(2,1,24)             110.1811         estimate D2E/DX2                !
 ! A4    A(22,1,23)            107.2748         estimate D2E/DX2                !
 ! A5    A(22,1,24)            107.2612         estimate D2E/DX2                !
 ! A6    A(23,1,24)            107.5424         estimate D2E/DX2                !
 ! A7    A(1,2,3)              109.7777         estimate D2E/DX2                !
 ! A8    A(1,2,17)             115.6679         estimate D2E/DX2                !
 ! A9    A(1,2,20)             109.506          estimate D2E/DX2                !
 ! A10   A(3,2,17)             106.964          estimate D2E/DX2                !
 ! A11   A(3,2,20)             115.4494         estimate D2E/DX2                !
 ! A12   A(17,2,20)             99.3251         estimate D2E/DX2                !
 ! A13   A(2,3,4)              112.5927         estimate D2E/DX2                !
 ! A14   A(2,3,25)             109.9266         estimate D2E/DX2                !
 ! A15   A(2,3,26)             109.774          estimate D2E/DX2                !
 ! A16   A(4,3,25)             109.3207         estimate D2E/DX2                !
 ! A17   A(4,3,26)             108.24           estimate D2E/DX2                !
 ! A18   A(25,3,26)            106.8064         estimate D2E/DX2                !
 ! A19   A(3,4,5)              114.6166         estimate D2E/DX2                !
 ! A20   A(3,4,27)             106.9915         estimate D2E/DX2                !
 ! A21   A(3,4,28)             108.338          estimate D2E/DX2                !
 ! A22   A(5,4,27)             109.3717         estimate D2E/DX2                !
 ! A23   A(5,4,28)             110.3218         estimate D2E/DX2                !
 ! A24   A(27,4,28)            106.876          estimate D2E/DX2                !
 ! A25   A(4,5,6)              112.062          estimate D2E/DX2                !
 ! A26   A(4,5,15)             115.5362         estimate D2E/DX2                !
 ! A27   A(4,5,29)             104.166          estimate D2E/DX2                !
 ! A28   A(6,5,15)             113.0544         estimate D2E/DX2                !
 ! A29   A(6,5,29)             104.8993         estimate D2E/DX2                !
 ! A30   A(15,5,29)            105.8938         estimate D2E/DX2                !
 ! A31   A(5,6,7)              109.0335         estimate D2E/DX2                !
 ! A32   A(5,6,17)             109.8321         estimate D2E/DX2                !
 ! A33   A(5,6,30)             110.0743         estimate D2E/DX2                !
 ! A34   A(7,6,17)             112.1138         estimate D2E/DX2                !
 ! A35   A(7,6,30)             107.3077         estimate D2E/DX2                !
 ! A36   A(17,6,30)            108.4397         estimate D2E/DX2                !
 ! A37   A(6,7,8)              110.7904         estimate D2E/DX2                !
 ! A38   A(6,7,31)             110.2217         estimate D2E/DX2                !
 ! A39   A(6,7,32)             110.2251         estimate D2E/DX2                !
 ! A40   A(8,7,31)             109.3108         estimate D2E/DX2                !
 ! A41   A(8,7,32)             108.4315         estimate D2E/DX2                !
 ! A42   A(31,7,32)            107.7895         estimate D2E/DX2                !
 ! A43   A(7,8,9)              112.9877         estimate D2E/DX2                !
 ! A44   A(7,8,33)             108.9957         estimate D2E/DX2                !
 ! A45   A(7,8,34)             107.0371         estimate D2E/DX2                !
 ! A46   A(9,8,33)             108.2899         estimate D2E/DX2                !
 ! A47   A(9,8,34)             112.8488         estimate D2E/DX2                !
 ! A48   A(33,8,34)            106.4329         estimate D2E/DX2                !
 ! A49   A(8,9,10)             118.1535         estimate D2E/DX2                !
 ! A50   A(8,9,15)             119.4346         estimate D2E/DX2                !
 ! A51   A(10,9,15)            122.3258         estimate D2E/DX2                !
 ! A52   A(9,10,11)            123.7584         estimate D2E/DX2                !
 ! A53   A(9,10,35)            119.5323         estimate D2E/DX2                !
 ! A54   A(11,10,35)           116.6884         estimate D2E/DX2                !
 ! A55   A(10,11,12)           119.4487         estimate D2E/DX2                !
 ! A56   A(10,11,13)           121.8658         estimate D2E/DX2                !
 ! A57   A(12,11,13)           118.6192         estimate D2E/DX2                !
 ! A58   A(11,13,14)           110.8628         estimate D2E/DX2                !
 ! A59   A(11,13,36)           108.7799         estimate D2E/DX2                !
 ! A60   A(11,13,37)           109.8823         estimate D2E/DX2                !
 ! A61   A(14,13,36)           110.3245         estimate D2E/DX2                !
 ! A62   A(14,13,37)           109.0622         estimate D2E/DX2                !
 ! A63   A(36,13,37)           107.8776         estimate D2E/DX2                !
 ! A64   A(13,14,15)           113.78           estimate D2E/DX2                !
 ! A65   A(13,14,38)           106.8181         estimate D2E/DX2                !
 ! A66   A(13,14,39)           108.1943         estimate D2E/DX2                !
 ! A67   A(15,14,38)           109.7298         estimate D2E/DX2                !
 ! A68   A(15,14,39)           111.1483         estimate D2E/DX2                !
 ! A69   A(38,14,39)           106.8538         estimate D2E/DX2                !
 ! A70   A(5,15,9)             110.4832         estimate D2E/DX2                !
 ! A71   A(5,15,14)            108.433          estimate D2E/DX2                !
 ! A72   A(5,15,16)            112.1153         estimate D2E/DX2                !
 ! A73   A(9,15,14)            110.1132         estimate D2E/DX2                !
 ! A74   A(9,15,16)            107.1971         estimate D2E/DX2                !
 ! A75   A(14,15,16)           108.4759         estimate D2E/DX2                !
 ! A76   A(15,16,40)           111.9042         estimate D2E/DX2                !
 ! A77   A(15,16,41)           111.2249         estimate D2E/DX2                !
 ! A78   A(15,16,42)           111.419          estimate D2E/DX2                !
 ! A79   A(40,16,41)           107.3315         estimate D2E/DX2                !
 ! A80   A(40,16,42)           107.6562         estimate D2E/DX2                !
 ! A81   A(41,16,42)           107.0618         estimate D2E/DX2                !
 ! A82   A(2,17,6)             113.0145         estimate D2E/DX2                !
 ! A83   A(2,17,18)            104.2407         estimate D2E/DX2                !
 ! A84   A(2,17,43)            108.9628         estimate D2E/DX2                !
 ! A85   A(6,17,18)            119.8538         estimate D2E/DX2                !
 ! A86   A(6,17,43)            105.3116         estimate D2E/DX2                !
 ! A87   A(18,17,43)           104.8846         estimate D2E/DX2                !
 ! A88   A(17,18,19)           104.0286         estimate D2E/DX2                !
 ! A89   A(17,18,44)           111.3241         estimate D2E/DX2                !
 ! A90   A(17,18,45)           110.724          estimate D2E/DX2                !
 ! A91   A(19,18,44)           111.4088         estimate D2E/DX2                !
 ! A92   A(19,18,45)           110.8202         estimate D2E/DX2                !
 ! A93   A(44,18,45)           108.5175         estimate D2E/DX2                !
 ! A94   A(18,19,20)           106.62           estimate D2E/DX2                !
 ! A95   A(18,19,46)           109.9538         estimate D2E/DX2                !
 ! A96   A(18,19,47)           110.738          estimate D2E/DX2                !
 ! A97   A(20,19,46)           110.9955         estimate D2E/DX2                !
 ! A98   A(20,19,47)           110.3652         estimate D2E/DX2                !
 ! A99   A(46,19,47)           108.1832         estimate D2E/DX2                !
 ! A100  A(2,20,19)            104.8027         estimate D2E/DX2                !
 ! A101  A(2,20,21)            114.6591         estimate D2E/DX2                !
 ! A102  A(2,20,48)            110.0188         estimate D2E/DX2                !
 ! A103  A(19,20,21)           111.9383         estimate D2E/DX2                !
 ! A104  A(19,20,48)           108.6138         estimate D2E/DX2                !
 ! A105  A(21,20,48)           106.7202         estimate D2E/DX2                !
 ! A106  A(20,21,49)           104.9969         estimate D2E/DX2                !
 ! D1    D(22,1,2,3)            60.1127         estimate D2E/DX2                !
 ! D2    D(22,1,2,17)          -61.006          estimate D2E/DX2                !
 ! D3    D(22,1,2,20)         -172.1652         estimate D2E/DX2                !
 ! D4    D(23,1,2,3)          -179.0721         estimate D2E/DX2                !
 ! D5    D(23,1,2,17)           59.8092         estimate D2E/DX2                !
 ! D6    D(23,1,2,20)          -51.35           estimate D2E/DX2                !
 ! D7    D(24,1,2,3)           -59.34           estimate D2E/DX2                !
 ! D8    D(24,1,2,17)          179.5412         estimate D2E/DX2                !
 ! D9    D(24,1,2,20)           68.3821         estimate D2E/DX2                !
 ! D10   D(1,2,3,4)            -70.1223         estimate D2E/DX2                !
 ! D11   D(1,2,3,25)            52.02           estimate D2E/DX2                !
 ! D12   D(1,2,3,26)           169.2236         estimate D2E/DX2                !
 ! D13   D(17,2,3,4)            56.101          estimate D2E/DX2                !
 ! D14   D(17,2,3,25)          178.2434         estimate D2E/DX2                !
 ! D15   D(17,2,3,26)          -64.5531         estimate D2E/DX2                !
 ! D16   D(20,2,3,4)           165.5385         estimate D2E/DX2                !
 ! D17   D(20,2,3,25)          -72.3191         estimate D2E/DX2                !
 ! D18   D(20,2,3,26)           44.8845         estimate D2E/DX2                !
 ! D19   D(1,2,17,6)            60.2803         estimate D2E/DX2                !
 ! D20   D(1,2,17,18)          -71.4625         estimate D2E/DX2                !
 ! D21   D(1,2,17,43)          176.9803         estimate D2E/DX2                !
 ! D22   D(3,2,17,6)           -62.3416         estimate D2E/DX2                !
 ! D23   D(3,2,17,18)          165.9156         estimate D2E/DX2                !
 ! D24   D(3,2,17,43)           54.3585         estimate D2E/DX2                !
 ! D25   D(20,2,17,6)          177.3025         estimate D2E/DX2                !
 ! D26   D(20,2,17,18)          45.5598         estimate D2E/DX2                !
 ! D27   D(20,2,17,43)         -65.9974         estimate D2E/DX2                !
 ! D28   D(1,2,20,19)           82.1413         estimate D2E/DX2                !
 ! D29   D(1,2,20,21)          -40.9878         estimate D2E/DX2                !
 ! D30   D(1,2,20,48)         -161.2653         estimate D2E/DX2                !
 ! D31   D(3,2,20,19)         -153.378          estimate D2E/DX2                !
 ! D32   D(3,2,20,21)           83.4929         estimate D2E/DX2                !
 ! D33   D(3,2,20,48)          -36.7846         estimate D2E/DX2                !
 ! D34   D(17,2,20,19)         -39.4495         estimate D2E/DX2                !
 ! D35   D(17,2,20,21)        -162.5786         estimate D2E/DX2                !
 ! D36   D(17,2,20,48)          77.1439         estimate D2E/DX2                !
 ! D37   D(2,3,4,5)            -50.5967         estimate D2E/DX2                !
 ! D38   D(2,3,4,27)          -172.0306         estimate D2E/DX2                !
 ! D39   D(2,3,4,28)            73.067          estimate D2E/DX2                !
 ! D40   D(25,3,4,5)          -173.0807         estimate D2E/DX2                !
 ! D41   D(25,3,4,27)           65.4854         estimate D2E/DX2                !
 ! D42   D(25,3,4,28)          -49.417          estimate D2E/DX2                !
 ! D43   D(26,3,4,5)            70.9337         estimate D2E/DX2                !
 ! D44   D(26,3,4,27)          -50.5003         estimate D2E/DX2                !
 ! D45   D(26,3,4,28)         -165.4027         estimate D2E/DX2                !
 ! D46   D(3,4,5,6)             46.3204         estimate D2E/DX2                !
 ! D47   D(3,4,5,15)           177.7665         estimate D2E/DX2                !
 ! D48   D(3,4,5,29)           -66.5367         estimate D2E/DX2                !
 ! D49   D(27,4,5,6)           166.4417         estimate D2E/DX2                !
 ! D50   D(27,4,5,15)          -62.1122         estimate D2E/DX2                !
 ! D51   D(27,4,5,29)           53.5846         estimate D2E/DX2                !
 ! D52   D(28,4,5,6)           -76.277          estimate D2E/DX2                !
 ! D53   D(28,4,5,15)           55.1692         estimate D2E/DX2                !
 ! D54   D(28,4,5,29)          170.866          estimate D2E/DX2                !
 ! D55   D(4,5,6,7)           -172.5746         estimate D2E/DX2                !
 ! D56   D(4,5,6,17)           -49.3622         estimate D2E/DX2                !
 ! D57   D(4,5,6,30)            69.965          estimate D2E/DX2                !
 ! D58   D(15,5,6,7)            54.7378         estimate D2E/DX2                !
 ! D59   D(15,5,6,17)          177.9502         estimate D2E/DX2                !
 ! D60   D(15,5,6,30)          -62.7226         estimate D2E/DX2                !
 ! D61   D(29,5,6,7)           -60.1736         estimate D2E/DX2                !
 ! D62   D(29,5,6,17)           63.0388         estimate D2E/DX2                !
 ! D63   D(29,5,6,30)         -177.634          estimate D2E/DX2                !
 ! D64   D(4,5,15,9)          -177.1713         estimate D2E/DX2                !
 ! D65   D(4,5,15,14)           62.0689         estimate D2E/DX2                !
 ! D66   D(4,5,15,16)          -57.6677         estimate D2E/DX2                !
 ! D67   D(6,5,15,9)           -46.196          estimate D2E/DX2                !
 ! D68   D(6,5,15,14)         -166.9557         estimate D2E/DX2                !
 ! D69   D(6,5,15,16)           73.3077         estimate D2E/DX2                !
 ! D70   D(29,5,15,9)           68.1176         estimate D2E/DX2                !
 ! D71   D(29,5,15,14)         -52.6422         estimate D2E/DX2                !
 ! D72   D(29,5,15,16)        -172.3787         estimate D2E/DX2                !
 ! D73   D(5,6,7,8)            -57.5287         estimate D2E/DX2                !
 ! D74   D(5,6,7,31)            63.5901         estimate D2E/DX2                !
 ! D75   D(5,6,7,32)          -177.5483         estimate D2E/DX2                !
 ! D76   D(17,6,7,8)          -179.3696         estimate D2E/DX2                !
 ! D77   D(17,6,7,31)          -58.2508         estimate D2E/DX2                !
 ! D78   D(17,6,7,32)           60.6108         estimate D2E/DX2                !
 ! D79   D(30,6,7,8)            61.668          estimate D2E/DX2                !
 ! D80   D(30,6,7,31)         -177.2131         estimate D2E/DX2                !
 ! D81   D(30,6,7,32)          -58.3515         estimate D2E/DX2                !
 ! D82   D(5,6,17,2)            59.8563         estimate D2E/DX2                !
 ! D83   D(5,6,17,18)         -176.6419         estimate D2E/DX2                !
 ! D84   D(5,6,17,43)          -58.9824         estimate D2E/DX2                !
 ! D85   D(7,6,17,2)          -178.7606         estimate D2E/DX2                !
 ! D86   D(7,6,17,18)          -55.2588         estimate D2E/DX2                !
 ! D87   D(7,6,17,43)           62.4007         estimate D2E/DX2                !
 ! D88   D(30,6,17,2)          -60.467          estimate D2E/DX2                !
 ! D89   D(30,6,17,18)          63.0348         estimate D2E/DX2                !
 ! D90   D(30,6,17,43)        -179.3057         estimate D2E/DX2                !
 ! D91   D(6,7,8,9)             54.0495         estimate D2E/DX2                !
 ! D92   D(6,7,8,33)           -66.3858         estimate D2E/DX2                !
 ! D93   D(6,7,8,34)           178.8802         estimate D2E/DX2                !
 ! D94   D(31,7,8,9)           -67.6059         estimate D2E/DX2                !
 ! D95   D(31,7,8,33)          171.9588         estimate D2E/DX2                !
 ! D96   D(31,7,8,34)           57.2248         estimate D2E/DX2                !
 ! D97   D(32,7,8,9)           175.1348         estimate D2E/DX2                !
 ! D98   D(32,7,8,33)           54.6995         estimate D2E/DX2                !
 ! D99   D(32,7,8,34)          -60.0345         estimate D2E/DX2                !
 ! D100  D(7,8,9,10)           134.8349         estimate D2E/DX2                !
 ! D101  D(7,8,9,15)           -48.461          estimate D2E/DX2                !
 ! D102  D(33,8,9,10)         -104.3278         estimate D2E/DX2                !
 ! D103  D(33,8,9,15)           72.3763         estimate D2E/DX2                !
 ! D104  D(34,8,9,10)           13.2261         estimate D2E/DX2                !
 ! D105  D(34,8,9,15)         -170.0698         estimate D2E/DX2                !
 ! D106  D(8,9,10,11)          174.6175         estimate D2E/DX2                !
 ! D107  D(8,9,10,35)           -3.6623         estimate D2E/DX2                !
 ! D108  D(15,9,10,11)          -1.9854         estimate D2E/DX2                !
 ! D109  D(15,9,10,35)         179.7347         estimate D2E/DX2                !
 ! D110  D(8,9,15,5)            43.5557         estimate D2E/DX2                !
 ! D111  D(8,9,15,14)          163.3083         estimate D2E/DX2                !
 ! D112  D(8,9,15,16)          -78.8764         estimate D2E/DX2                !
 ! D113  D(10,9,15,5)         -139.8833         estimate D2E/DX2                !
 ! D114  D(10,9,15,14)         -20.1308         estimate D2E/DX2                !
 ! D115  D(10,9,15,16)          97.6845         estimate D2E/DX2                !
 ! D116  D(9,10,11,12)        -176.9982         estimate D2E/DX2                !
 ! D117  D(9,10,11,13)          -0.0004         estimate D2E/DX2                !
 ! D118  D(35,10,11,12)          1.3267         estimate D2E/DX2                !
 ! D119  D(35,10,11,13)        178.3246         estimate D2E/DX2                !
 ! D120  D(10,11,13,14)         24.3494         estimate D2E/DX2                !
 ! D121  D(10,11,13,36)        -97.1308         estimate D2E/DX2                !
 ! D122  D(10,11,13,37)        144.9795         estimate D2E/DX2                !
 ! D123  D(12,11,13,14)       -158.6287         estimate D2E/DX2                !
 ! D124  D(12,11,13,36)         79.8911         estimate D2E/DX2                !
 ! D125  D(12,11,13,37)        -37.9986         estimate D2E/DX2                !
 ! D126  D(11,13,14,15)        -45.8609         estimate D2E/DX2                !
 ! D127  D(11,13,14,38)         75.3759         estimate D2E/DX2                !
 ! D128  D(11,13,14,39)       -169.9048         estimate D2E/DX2                !
 ! D129  D(36,13,14,15)         74.7072         estimate D2E/DX2                !
 ! D130  D(36,13,14,38)       -164.056          estimate D2E/DX2                !
 ! D131  D(36,13,14,39)        -49.3368         estimate D2E/DX2                !
 ! D132  D(37,13,14,15)       -166.976          estimate D2E/DX2                !
 ! D133  D(37,13,14,38)        -45.7392         estimate D2E/DX2                !
 ! D134  D(37,13,14,39)         68.98           estimate D2E/DX2                !
 ! D135  D(13,14,15,5)         164.7689         estimate D2E/DX2                !
 ! D136  D(13,14,15,9)          43.7803         estimate D2E/DX2                !
 ! D137  D(13,14,15,16)        -73.2418         estimate D2E/DX2                !
 ! D138  D(38,14,15,5)          45.17           estimate D2E/DX2                !
 ! D139  D(38,14,15,9)         -75.8187         estimate D2E/DX2                !
 ! D140  D(38,14,15,16)        167.1592         estimate D2E/DX2                !
 ! D141  D(39,14,15,5)         -72.7988         estimate D2E/DX2                !
 ! D142  D(39,14,15,9)         166.2126         estimate D2E/DX2                !
 ! D143  D(39,14,15,16)         49.1905         estimate D2E/DX2                !
 ! D144  D(5,15,16,40)         -52.9246         estimate D2E/DX2                !
 ! D145  D(5,15,16,41)        -172.9645         estimate D2E/DX2                !
 ! D146  D(5,15,16,42)          67.665          estimate D2E/DX2                !
 ! D147  D(9,15,16,40)          68.4861         estimate D2E/DX2                !
 ! D148  D(9,15,16,41)         -51.5538         estimate D2E/DX2                !
 ! D149  D(9,15,16,42)        -170.9243         estimate D2E/DX2                !
 ! D150  D(14,15,16,40)       -172.6361         estimate D2E/DX2                !
 ! D151  D(14,15,16,41)         67.324          estimate D2E/DX2                !
 ! D152  D(14,15,16,42)        -52.0465         estimate D2E/DX2                !
 ! D153  D(2,17,18,19)         -34.2035         estimate D2E/DX2                !
 ! D154  D(2,17,18,44)        -154.2981         estimate D2E/DX2                !
 ! D155  D(2,17,18,45)          84.8903         estimate D2E/DX2                !
 ! D156  D(6,17,18,19)        -161.8467         estimate D2E/DX2                !
 ! D157  D(6,17,18,44)          78.0588         estimate D2E/DX2                !
 ! D158  D(6,17,18,45)         -42.7528         estimate D2E/DX2                !
 ! D159  D(43,17,18,19)         80.275          estimate D2E/DX2                !
 ! D160  D(43,17,18,44)        -39.8195         estimate D2E/DX2                !
 ! D161  D(43,17,18,45)       -160.6311         estimate D2E/DX2                !
 ! D162  D(17,18,19,20)          8.8028         estimate D2E/DX2                !
 ! D163  D(17,18,19,46)        129.2116         estimate D2E/DX2                !
 ! D164  D(17,18,19,47)       -111.2867         estimate D2E/DX2                !
 ! D165  D(44,18,19,20)        128.8401         estimate D2E/DX2                !
 ! D166  D(44,18,19,46)       -110.7511         estimate D2E/DX2                !
 ! D167  D(44,18,19,47)          8.7506         estimate D2E/DX2                !
 ! D168  D(45,18,19,20)       -110.2254         estimate D2E/DX2                !
 ! D169  D(45,18,19,46)         10.1834         estimate D2E/DX2                !
 ! D170  D(45,18,19,47)        129.6851         estimate D2E/DX2                !
 ! D171  D(18,19,20,2)          19.6669         estimate D2E/DX2                !
 ! D172  D(18,19,20,21)        144.5335         estimate D2E/DX2                !
 ! D173  D(18,19,20,48)        -97.8899         estimate D2E/DX2                !
 ! D174  D(46,19,20,2)        -100.0702         estimate D2E/DX2                !
 ! D175  D(46,19,20,21)         24.7963         estimate D2E/DX2                !
 ! D176  D(46,19,20,48)        142.373          estimate D2E/DX2                !
 ! D177  D(47,19,20,2)         139.9965         estimate D2E/DX2                !
 ! D178  D(47,19,20,21)        -95.137          estimate D2E/DX2                !
 ! D179  D(47,19,20,48)         22.4397         estimate D2E/DX2                !
 ! D180  D(2,20,21,49)         -61.174          estimate D2E/DX2                !
 ! D181  D(19,20,21,49)        179.6179         estimate D2E/DX2                !
 ! D182  D(48,20,21,49)         60.9136         estimate D2E/DX2                !
 --------------------------------------------------------------------------------
 Trust Radius=3.00D-01 FncErr=1.00D-07 GrdErr=1.00D-06 EigMax=2.50D+02 EigMin=1.00D-04
 Number of steps in this run=    294 maximum allowed number of steps=    294.
 GradGradGradGradGradGradGradGradGradGradGradGradGradGradGradGradGradGrad

 Leave Link  103 at Mon Feb 22 21:13:46 2021, MaxMem=   104857600 cpu:               0.5 elap:               0.0
 (Enter /sw/arch/RedHatEnterpriseServer7/EB_production/2019/software/Gaussian/g16.c01/l202.exe)
                          Input orientation:                          
 ---------------------------------------------------------------------
 Center     Atomic      Atomic             Coordinates (Angstroms)
 Number     Number       Type             X           Y           Z
 ---------------------------------------------------------------------
      1          6           0       -7.413390   -0.840390    2.637650
      2          6           0       -6.248980   -0.950120    3.695780
      3          6           0       -5.502540    0.421670    3.806260
      4          6           0       -4.662970    0.752230    2.531610
      5          6           0       -3.701220   -0.403430    2.061430
      6          6           0       -4.423830   -1.805220    2.044010
      7          6           0       -3.373060   -2.913590    1.755760
      8          6           0       -2.648320   -2.647330    0.418460
      9          6           0       -2.049940   -1.304550    0.346370
     10          6           0       -0.786320   -1.192350   -0.130390
     11          6           0       -0.151380    0.017890   -0.348940
     12          8           0        0.998800    0.029210   -0.845660
     13          6           0       -0.815610    1.307480   -0.073780
     14          6           0       -1.933460    1.137400    0.984970
     15          6           0       -2.872460   -0.109870    0.726740
     16          6           0       -3.809740    0.216160   -0.492110
     17          6           0       -5.165470   -2.036120    3.399570
     18          6           0       -5.888290   -3.375440    3.662020
     19          6           0       -6.856440   -3.057370    4.832370
     20          6           0       -6.815000   -1.516560    5.037630
     21          8           0       -8.089110   -0.994200    5.414320
     22          1           0       -7.046070   -0.580320    1.646820
     23          1           0       -7.970730   -1.773650    2.541980
     24          1           0       -8.121030   -0.063340    2.935260
     25          1           0       -6.223070    1.224780    3.983150
     26          1           0       -4.827460    0.407330    4.666600
     27          1           0       -4.074000    1.643530    2.759580
     28          1           0       -5.348900    1.022990    1.730230
     29          1           0       -2.958080   -0.478830    2.866410
     30          1           0       -5.158920   -1.837560    1.238640
     31          1           0       -2.636610   -2.956210    2.564330
     32          1           0       -3.860470   -3.890030    1.696220
     33          1           0       -3.364760   -2.747950   -0.400580
     34          1           0       -1.913270   -3.447890    0.287050
     35          1           0       -0.276130   -2.014020   -0.366480
     36          1           0       -1.232340    1.694780   -1.006950
     37          1           0       -0.083300    2.032230    0.293220
     38          1           0       -1.437360    1.031960    1.955310
     39          1           0       -2.510600    2.063880    1.023400
     40          1           0       -4.568080   -0.552960   -0.639080
     41          1           0       -3.239020    0.292210   -1.420740
     42          1           0       -4.325490    1.167240   -0.354690
     43          1           0       -4.382900   -1.980890    4.172260
     44          1           0       -5.179350   -4.163820    3.933070
     45          1           0       -6.442040   -3.696180    2.776010
     46          1           0       -7.867910   -3.392610    4.582060
     47          1           0       -6.542540   -3.571620    5.745400
     48          1           0       -6.126560   -1.291670    5.859730
     49          1           0       -7.946430   -0.029970    5.521490
 ---------------------------------------------------------------------
                    Distance matrix (angstroms):
                    1          2          3          4          5
     1  C    0.000000
     2  C    1.577191   0.000000
     3  C    2.570952   1.565626   0.000000
     4  C    3.180015   2.601675   1.561691   0.000000
     5  C    3.781953   3.075882   2.640071   1.575304   0.000000
     6  C    3.196995   2.605900   3.037792   2.614477   1.577176
     7  C    4.626030   3.986202   4.456814   3.962833   2.549907
     8  C    5.558393   5.156171   5.389111   4.481208   2.973724
     9  C    5.850812   5.382946   5.183736   3.979139   2.545619
    10  C    7.190548   6.673748   6.351772   5.088816   3.731369
    11  C    7.898934   7.380889   6.787020   5.402894   4.311468
    12  O    9.146288   8.608953   8.003862   6.632070   5.543333
    13  C    7.449557   6.987693   6.148714   4.679587   3.976566
    14  C    6.055794   5.507263   4.605462   3.160803   2.580290
    15  C    4.980490   4.574069   4.084519   2.684529   1.598255
    16  C    4.888557   4.984829   4.624261   3.187202   2.629874
    17  C    2.657713   1.562412   2.513910   2.963234   2.569109
    18  C    3.130773   2.452226   3.819379   4.451617   4.022189
    19  C    3.168910   2.470090   3.871649   4.961639   4.967587
    20  C    2.564211   1.562624   2.644912   4.007340   4.448871
    21  O    2.861844   2.518214   3.358703   4.806087   5.553779
    22  H    1.088258   2.229426   2.837191   2.870141   3.375087
    23  H    1.091217   2.230220   3.536919   4.161905   4.509673
    24  H    1.092306   2.206658   2.801850   3.575789   4.518181
    25  H    2.737181   2.193956   1.093361   2.182701   3.564239
    26  H    3.515747   2.192232   1.093674   2.168916   2.951721
    27  H    4.163682   3.511984   2.151559   1.092370   2.194635
    28  H    2.925357   2.926892   2.166816   1.089046   2.204363
    29  H    4.475807   3.426367   2.858058   2.129378   1.098151
    30  H    2.834469   2.830780   3.437276   2.936792   2.204224
    31  H    5.224911   4.284133   4.600654   4.226078   2.811225
    32  H    4.775964   4.283257   5.073403   4.784607   3.509290
    33  H    5.409347   5.322695   5.684549   4.747036   3.416354
    34  H    6.525005   6.054476   6.343595   5.499082   3.951446
    35  H    7.832157   7.301286   7.117563   5.940996   4.496664
    36  H    7.610228   7.367350   6.559147   5.017871   4.462377
    37  H    8.214531   7.647708   6.656089   5.255680   4.706203
    38  H    6.299541   5.487218   4.508232   3.288606   2.682661
    39  H    5.922663   5.495571   4.403733   2.937315   2.929625
    40  H    4.349180   4.666280   4.645876   3.430131   2.840169
    41  H    5.931162   6.064818   5.697527   4.226147   3.580929
    42  H    4.745503   4.958763   4.388032   2.935448   2.948619
    43  H    3.583244   2.184439   2.675789   3.200018   2.721887
    44  H    4.208828   3.395332   4.598614   5.137926   4.452913
    45  H    3.019636   2.902429   4.347501   4.797205   4.343377
    46  H    3.240547   3.061402   4.554731   5.626338   5.714025
    47  H    4.228015   3.340566   4.559411   5.705866   5.628691
    48  H    3.498769   2.194156   2.746211   4.170852   4.593292
    49  H    3.042605   2.657297   3.019700   4.509138   5.489380
                    6          7          8          9         10
     6  C    0.000000
     7  C    1.554249   0.000000
     8  C    2.550294   1.544187   0.000000
     9  C    2.961082   2.515161   1.471840   0.000000
    10  C    4.281951   3.634756   2.425953   1.355221   0.000000
    11  C    5.225301   4.837619   3.731891   2.415954   1.384050
    12  O    6.412507   5.877127   4.697164   3.534780   2.278261
    13  C    5.214709   5.263573   4.386530   2.919383   2.500642
    14  C    3.997815   4.367732   3.893089   2.526756   2.826251
    15  C    2.648804   3.028255   2.565926   1.499494   2.501682
    16  C    3.300756   3.878008   3.221430   2.472348   3.354968
    17  C    1.562334   2.585498   3.949258   4.423093   5.687664
    18  C    2.688529   3.189595   4.642007   5.478599   6.721484
    19  C    3.906459   4.649746   6.112202   6.804338   8.059382
    20  C    3.842236   4.956744   6.322705   6.690192   7.947234
    21  O    5.044900   6.269788   7.569257   7.889994   9.171358
    22  H    2.921349   4.352817   5.012146   5.213156   6.535865
    23  H    3.581825   4.801685   5.796611   6.332181   7.687341
    24  H    4.183032   5.662011   6.554528   6.715734   8.029374
    25  H    4.022242   5.496356   6.362318   6.085942   7.233393
    26  H    3.454891   4.649385   5.668006   5.413828   6.473091
    27  H    3.539534   4.718720   5.091649   4.314114   5.215648
    28  H    2.992154   4.404686   4.741848   4.267979   5.402479
    29  H    2.141045   2.708100   3.284936   2.803058   3.769146
    30  H    1.090882   2.148150   2.762523   3.278110   4.627112
    31  H    2.188531   1.094514   2.168018   2.826926   3.714336
    32  H    2.187411   1.092954   2.155523   3.432903   4.479328
    33  H    2.826020   2.162708   1.092812   2.090476   3.023449
    34  H    3.476807   2.138591   1.094744   2.148512   2.555726
    35  H    4.801820   3.860583   2.577692   2.039094   0.995577
    36  H    5.634178   5.783798   4.784424   3.390564   3.050051
    37  H    6.052395   6.117408   5.337911   3.873577   3.327401
    38  H    4.120250   4.399332   4.167194   2.902279   3.117940
    39  H    4.435316   5.104449   4.751886   3.466540   3.861011
    40  H    2.964445   3.568740   3.031543   2.806604   3.869017
    41  H    4.219891   4.515005   3.517453   2.661998   3.143988
    42  H    3.820857   4.691939   4.238113   3.432107   4.259542
    43  H    2.135880   2.780140   4.188547   4.531840   5.663036
    44  H    3.114860   3.092966   4.588937   5.552751   6.681321
    45  H    2.860896   3.327461   4.588076   5.559999   6.833995
    46  H    4.563244   5.331145   6.718268   7.493320   8.786196
    47  H    4.616209   5.137688   6.662999   7.380555   8.562704
    48  H    4.209839   5.201438   6.598741   6.856831   8.025557
    49  H    5.258621   6.588756   7.807782   7.948271   9.195763
                   11         12         13         14         15
    11  C    0.000000
    12  O    1.252906   0.000000
    13  C    1.476468   2.349863   0.000000
    14  C    2.491672   3.630074   1.549021   0.000000
    15  C    2.928769   4.180722   2.623041   1.582430   0.000000
    16  C    3.666525   4.825143   3.214155   2.559468   1.571746
    17  C    6.588732   7.764392   6.493466   5.132973   4.014020
    18  C    7.779115   8.907459   7.849715   6.570617   5.326823
    19  C    9.014490  10.172109   8.922659   7.525577   6.435530
    20  C    8.704798   9.902423   8.372240   6.877281   6.008841
    21  O    9.861392  11.082636   9.397913   7.877492   7.068867
    22  H    7.202615   8.444165   6.733713   5.433911   4.299638
    23  H    8.526973   9.755966   8.217743   6.880924   5.661768
    24  H    8.620202   9.872954   8.018892   6.597835   5.694490
    25  H    7.555727   8.769390   6.760632   5.234260   4.859227
    26  H    6.868262   8.029526   6.275063   4.739477   4.428546
    27  H    5.262371   6.429392   4.331047   2.826185   2.941181
    28  H    5.687476   6.922146   4.887341   3.497675   2.902261
    29  H    4.296833   5.449263   4.052875   2.683629   2.172936
    30  H    5.571226   6.763627   5.520694   4.395262   2.911160
    31  H    4.848585   5.810075   5.334296   4.443697   3.396176
    32  H    5.762974   6.740482   6.278390   5.430865   4.025626
    33  H    4.240088   5.191471   4.801195   4.366270   2.910786
    34  H    3.939590   4.674763   4.893731   4.638144   3.500821
    35  H    2.035811   2.455575   3.377732   3.808492   3.400272
    36  H    2.100812   2.788929   1.092919   2.184030   2.992062
    37  H    2.115318   2.545600   1.093723   2.168486   3.543437
    38  H    2.826951   3.845233   2.140021   1.094894   2.207413
    39  H    3.411057   4.466448   2.156139   1.092215   2.223542
    40  H    4.462879   5.601049   4.226326   3.526482   2.221918
    41  H    3.279867   4.284741   2.952624   2.864659   2.215334
    42  H    4.329461   5.466647   3.523895   2.741785   2.216257
    43  H    6.507083   7.627760   6.447309   5.087466   4.201637
    44  H    7.816827   8.864948   8.064254   6.879682   5.660106
    45  H    7.945567   9.075303   8.050753   6.848256   5.459215
    46  H    9.771955  10.944750   9.669676   8.287204   7.112974
    47  H    9.532706  10.643301   9.511372   8.128972   7.116189
    48  H    8.715808   9.873081   8.376653   6.873555   6.191398
    49  H    9.758434  10.980038   9.162118   7.622242   6.981489
                   16         17         18         19         20
    16  C    0.000000
    17  C    4.696375   0.000000
    18  C    5.871691   1.544386   0.000000
    19  C    6.953306   2.440337   1.551838   0.000000
    20  C    6.527781   2.382044   2.491291   1.554974   0.000000
    21  O    7.393504   3.700336   3.685711   2.472815   1.427624
    22  H    3.960206   2.954343   3.635132   4.039736   3.525270
    23  H    5.520768   2.945137   2.856007   2.852274   2.762259
    24  H    5.514726   3.583682   4.059965   3.763300   2.870108
    25  H    5.183573   3.477435   4.623551   4.411252   2.996207
    26  H    5.261615   2.773096   4.055107   4.018505   2.790937
    27  H    3.560998   3.891108   5.412588   5.842678   4.763272
    28  H    2.821132   3.489770   4.834143   5.342779   4.420142
    29  H    3.533835   2.753540   4.196365   5.070609   4.546088
    30  H    3.005586   2.170043   2.961389   4.157452   4.156677
    31  H    4.558727   2.817681   3.457470   4.791785   5.064459
    32  H    4.653188   2.835738   2.870754   4.416401   5.052487
    33  H    2.998722   4.265020   4.823553   6.298519   6.557027
    34  H    4.198684   4.717805   5.215022   6.726616   7.094012
    35  H    4.180417   6.171650   7.041208   8.450864   8.497570
    36  H    3.015687   6.986168   8.317709   9.397398   8.832652
    37  H    4.219148   7.213136   8.619142   9.611625   8.967671
    38  H    3.504794   5.039624   6.492212   7.373366   6.701840
    39  H    2.720038   5.431806   6.925121   7.721514   6.889227
    40  H    1.090057   4.343654   5.311197   6.437812   6.180794
    41  H    1.092638   5.689263   6.804758   7.962839   7.600646
    42  H    1.090612   5.006151   6.261968   7.152526   6.517481
    43  H    5.187667   1.101143   2.114548   2.777221   2.622895
    44  H    6.375129   2.193609   1.094352   2.201273   3.302028
    45  H    5.737248   2.185007   1.092944   2.192811   3.163031
    46  H    7.432306   3.246772   2.183040   1.094583   2.199029
    47  H    7.792432   3.123620   2.192488   1.093897   2.190535
    48  H    6.927271   2.744137   3.037894   2.169306   1.095616
    49  H    7.303162   4.032483   4.345772   3.290610   1.929820
                   21         22         23         24         25
    21  O    0.000000
    22  H    3.931067   0.000000
    23  H    2.978572   1.755091   0.000000
    24  H    2.648256   1.755815   1.761369   0.000000
    25  H    3.233299   3.064988   3.757908   2.521821   0.000000
    26  H    3.627910   3.875146   4.376166   3.750556   1.755863
    27  H    5.488750   3.875170   5.187386   4.395762   2.508182
    28  H    5.015010   2.336225   3.918434   3.211995   2.424983
    29  H    5.751949   4.267243   5.187338   5.180099   3.848318
    30  H    5.170452   2.304040   3.099848   3.847138   4.247667
    31  H    6.457684   5.092152   5.463679   6.211695   5.688271
    32  H    6.331785   4.593982   4.699852   5.859279   6.080560
    33  H    7.694685   4.737353   5.551836   6.399771   6.570358
    34  H    8.393479   6.034697   6.676871   7.550131   7.353188
    35  H    9.772427   7.207008   8.229446   8.732073   8.048304
    36  H    9.771316   6.783659   8.368441   8.129333   7.073145
    37  H    9.973863   7.558956   9.041747   8.716472   7.208629
    38  H    7.766328   5.843992   7.134462   6.843349   5.201186
    39  H    7.729929   5.286864   6.844395   6.297396   4.821477
    40  H    7.016837   3.371427   4.815315   5.063505   5.221529
    41  H    8.479167   4.966373   6.508457   6.552494   6.243098
    42  H    7.219289   3.802836   5.507023   5.171482   4.735079
    43  H    4.031410   3.928348   3.946300   4.379587   3.701123
    44  H    4.550527   4.642527   3.929357   5.144224   5.488977
    45  H    4.119978   3.368754   2.467344   4.005233   5.071586
    46  H    2.548324   4.147292   2.606440   3.722910   4.938065
    47  H    3.024002   5.098998   3.941360   4.764089   5.119867
    48  H    2.034326   4.370369   3.826321   3.746896   3.140603
    49  H    0.980603   4.015794   3.452317   2.592332   2.628851
                   26         27         28         29         30
    26  H    0.000000
    27  H    2.394289   0.000000
    28  H    3.045194   1.752142   0.000000
    29  H    2.742361   2.400230   3.043417   0.000000
    30  H    4.110998   3.950734   2.908694   3.056056   0.000000
    31  H    4.531309   4.823051   4.887358   2.516348   3.061189
    32  H    5.312770   5.638849   5.133648   3.717518   2.471434
    33  H    6.145860   5.456623   4.764153   3.998439   2.595161
    34  H    6.521939   6.058442   5.820231   4.069403   3.746055
    35  H    7.204820   6.129742   6.273167   4.472275   5.142877
    36  H    6.838975   4.718517   4.988940   4.765047   5.739175
    37  H    6.653857   4.707410   5.550685   4.603378   6.452210
    38  H    4.385662   2.823604   3.918021   2.329201   4.753711
    39  H    4.624382   2.373865   3.104675   3.172113   4.720292
    40  H    5.398118   4.076711   2.950750   3.858245   2.350558
    41  H    6.292226   4.471950   3.861897   4.364984   3.910785
    42  H    5.103214   3.160503   2.327030   3.867149   3.501732
    43  H    2.479032   3.902243   3.989983   2.447762   3.037907
    44  H    4.642985   6.026955   5.637752   4.432940   3.559755
    45  H    4.797916   5.841266   4.955722   4.743152   2.732100
    46  H    4.867343   6.563375   5.828882   5.961543   4.575507
    47  H    4.465126   6.496661   6.217460   5.540964   5.023172
    48  H    2.449045   4.737017   4.797413   4.433953   4.752767
    49  H    3.263440   5.042268   4.714821   5.668735   5.420369
                   31         32         33         34         35
    31  H    0.000000
    32  H    1.767334   0.000000
    33  H    3.060109   2.438574   0.000000
    34  H    2.439462   2.443939   1.752020   0.000000
    35  H    3.879334   4.541105   3.174815   2.272292   0.000000
    36  H    6.029737   6.738271   4.965154   5.346509   3.883264
    37  H    6.046641   7.163001   5.839474   5.777590   4.104208
    38  H    4.208872   5.492229   4.853124   4.804023   4.002144
    39  H    5.252775   6.141977   5.090286   5.592729   4.853235
    40  H    4.446124   4.134051   2.514526   4.035635   4.542009
    41  H    5.176477   5.252882   3.209223   4.320012   3.899856
    42  H    5.326897   5.477085   4.031603   5.246910   5.149551
    43  H    2.566363   3.169940   4.747195   4.831772   6.121014
    44  H    3.130064   2.611112   4.906928   4.947049   6.866537
    45  H    3.882481   2.805001   4.523220   5.173618   7.122033
    46  H    5.623894   4.963373   6.746899   7.342200   9.166443
    47  H    5.074862   4.867314   6.967768   7.158145   8.890955
    48  H    5.080365   5.405687   6.995697   7.311351   8.574090
    49  H    6.745507   6.799105   7.965553   8.687955   9.871076
                   36         37         38         39         40
    36  H    0.000000
    37  H    1.767656   0.000000
    38  H    3.042425   2.365705   0.000000
    39  H    2.427448   2.534946   1.756462   0.000000
    40  H    4.039161   5.259814   4.363971   3.720876   0.000000
    41  H    2.482980   3.990476   3.897553   3.105355   1.758325
    42  H    3.204890   4.377690   3.700770   2.448861   1.760345
    43  H    7.089485   7.045470   4.761128   5.457196   5.022178
    44  H    8.620086   8.809612   6.701504   7.373781   5.858030
    45  H    8.397274   8.911369   6.933663   7.190699   5.005437
    46  H   10.057304  10.412646   8.235813   8.434341   6.797999
    47  H   10.076082  10.141557   7.849879   8.385266   7.332966
    48  H    8.945589   8.863145   6.529345   6.908326   6.723770
    49  H    9.522305   9.665210   7.497555   7.359706   7.045523
                   41         42         43         44         45
    41  H    0.000000
    42  H    1.755721   0.000000
    43  H    6.144680   5.514281   0.000000
    44  H    7.230793   6.894502   2.335964   0.000000
    45  H    6.616593   6.159052   3.021885   1.775348   0.000000
    46  H    8.428412   7.596873   3.782352   2.871290   2.321008
    47  H    8.786125   8.036368   3.109540   2.343828   2.973700
    48  H    7.990733   6.921641   2.522485   3.585871   3.923076
    49  H    8.393930   7.005284   4.280801   5.221927   4.820990
                   46         47         48         49
    46  H    0.000000
    47  H    1.772572   0.000000
    48  H    3.013086   2.320406   0.000000
    49  H    3.492283   3.816324   2.240138   0.000000
 Stoichiometry    C19H28O2
 Framework group  C1[X(C19H28O2)]
 Deg. of freedom   141
 Full point group                 C1      NOp   1
 Largest Abelian subgroup         C1      NOp   1
 Largest concise Abelian subgroup C1      NOp   1
                         Standard orientation:                         
 ---------------------------------------------------------------------
 Center     Atomic      Atomic             Coordinates (Angstroms)
 Number     Number       Type             X           Y           Z
 ---------------------------------------------------------------------
      1          6           0       -3.010654   -0.776746    1.525659
      2          6           0       -2.750991   -0.531509   -0.010558
      3          6           0       -1.953677   -1.737149   -0.612148
      4          6           0       -0.477247   -1.792326   -0.106193
      5          6           0        0.314598   -0.437466   -0.243736
      6          6           0       -0.525320    0.794420    0.270538
      7          6           0        0.237992    2.105243   -0.068267
      8          6           0        1.648782    2.095871    0.559503
      9          6           0        2.432703    0.905019    0.193916
     10          6           0        3.723153    1.079436   -0.181506
     11          6           0        4.595124    0.037343   -0.444762
     12          8           0        5.788283    0.290064   -0.731602
     13          6           0        4.178068   -1.374708   -0.334616
     14          6           0        2.645161   -1.512444   -0.509812
     15          6           0        1.810550   -0.453600    0.318657
     16          6           0        1.867335   -0.853018    1.837744
     17          6           0       -1.952862    0.764443   -0.363587
     18          6           0       -2.945737    1.912075   -0.076767
     19          6           0       -4.328086    1.316890   -0.455010
     20          6           0       -4.102084   -0.198329   -0.721427
     21          8           0       -5.211738   -0.986838   -0.291272
     22          1           0       -2.084838   -0.877926    2.088627
     23          1           0       -3.579571    0.035586    1.980858
     24          1           0       -3.579666   -1.698009    1.669298
     25          1           0       -2.455996   -2.676401   -0.365326
     26          1           0       -1.939107   -1.663558   -1.703246
     27          1           0        0.029488   -2.568454   -0.684221
     28          1           0       -0.482718   -2.123565    0.931242
     29          1           0        0.402508   -0.286427   -1.327892
     30          1           0       -0.628757    0.750297    1.355608
     31          1           0        0.325265    2.222644   -1.152961
     32          1           0       -0.306595    2.970339    0.318492
     33          1           0        1.554014    2.123239    1.647854
     34          1           0        2.136040    3.031680    0.267436
     35          1           0        4.092661    2.000999   -0.254719
     36          1           0        4.484337   -1.756851    0.642439
     37          1           0        4.680279   -1.971761   -1.101129
     38          1           0        2.436444   -1.393548   -1.578032
     39          1           0        2.361810   -2.533086   -0.243475
     40          1           0        1.205582   -0.235825    2.445511
     41          1           0        2.877344   -0.740062    2.238968
     42          1           0        1.578330   -1.894007    1.986919
     43          1           0       -1.788383    0.798085   -1.451857
     44          1           0       -2.714443    2.797641   -0.676669
     45          1           0       -2.919028    2.191669    0.979472
     46          1           0       -5.037378    1.469461    0.364587
     47          1           0       -4.728598    1.804892   -1.348349
     48          1           0       -4.005547   -0.352856   -1.801786
     49          1           0       -4.966670   -1.910687   -0.510421
 ---------------------------------------------------------------------
 Rotational constants (GHZ):           0.7967947           0.1631913           0.1481070
 Leave Link  202 at Mon Feb 22 21:13:46 2021, MaxMem=   104857600 cpu:               0.6 elap:               0.0
 (Enter /sw/arch/RedHatEnterpriseServer7/EB_production/2019/software/Gaussian/g16.c01/l301.exe)
 Standard basis: TZVP (5D, 7F)
 Ernie: Thresh=  0.10000D-02 Tol=  0.10000D-05 Strict=F.
 There are   588 symmetry adapted cartesian basis functions of A   symmetry.
 There are   567 symmetry adapted basis functions of A   symmetry.
   567 basis functions,   959 primitive gaussians,   588 cartesian basis functions
    79 alpha electrons       79 beta electrons
       nuclear repulsion energy      1812.9639981273 Hartrees.
 IExCor=  404 DFT=T Ex=B Corr=P86 ExCW=0 ScaHFX=  0.000000
 ScaDFX=  1.000000  1.000000  1.000000  1.000000 ScalE2=  1.000000  1.000000
 IRadAn=      5 IRanWt=     -1 IRanGd=            0 ICorTp=0 IEmpDi=131
 NAtoms=   49 NActive=   49 NUniq=   49 SFac= 1.00D+00 NAtFMM=   60 NAOKFM=F Big=F
 Integral buffers will be    131072 words long.
 Raffenetti 2 integral format.
 Two-electron integral symmetry is turned on.
 R6Disp:  Grimme-D3 Dispersion energy=       -0.0735517994 Hartrees.
 Nuclear repulsion after empirical dispersion term =     1812.8904463279 Hartrees.
 ------------------------------------------------------------------------------
 Polarizable Continuum Model (PCM)
 =================================
 Model                : PCM.
 Atomic radii         : UFF (Universal Force Field).
 Polarization charges : Total charges.
 Charge compensation  : None.
 Solution method      : On-the-fly selection.
 Cavity type          : Scaled VdW (van der Waals Surface) (Alpha=1.100).
 Cavity algorithm     : GePol (No added spheres)
                        Default sphere list used, NSphG=   49.
                        Lebedev-Laikov grids with approx.  5.0 points / Ang**2.
                        Smoothing algorithm: York/Karplus (Gamma=1.0000).
                        Polarization charges: spherical gaussians, with
                                              point-specific exponents (IZeta= 3).
                        Self-potential: point-specific (ISelfS= 7).
                        Self-field    : sphere-specific E.n sum rule (ISelfD= 2).
 1st derivatives      : Analytical E(r).r(x)/FMM algorithm (CHGder, D1EAlg=3).
                        Cavity 1st derivative terms included.
 Solvent              : Water, Eps=  78.355300 Eps(inf)=   1.777849
 ------------------------------------------------------------------------------
 GePol: Number of generator spheres                  =      49
 GePol: Total number of spheres                      =      49
 GePol: Number of exposed spheres                    =      49 (100.00%)
 GePol: Number of points                             =    2784
 GePol: Average weight of points                     =       0.13
 GePol: Minimum weight of points                     =   0.66D-11
 GePol: Maximum weight of points                     =    0.20577
 GePol: Number of points with low weight             =     190
 GePol: Fraction of low-weight points (<1% of avg)   =       6.82%
 GePol: Cavity surface area                          =    363.781 Ang**2
 GePol: Cavity volume                                =    430.166 Ang**3
 Leave Link  301 at Mon Feb 22 21:13:47 2021, MaxMem=   104857600 cpu:               2.4 elap:               0.1
 (Enter /sw/arch/RedHatEnterpriseServer7/EB_production/2019/software/Gaussian/g16.c01/l302.exe)
 NPDir=0 NMtPBC=     1 NCelOv=     1 NCel=       1 NClECP=     1 NCelD=      1
         NCelK=      1 NCelE2=     1 NClLst=     1 CellRange=     0.0.
 One-electron integrals computed using PRISM.
 One-electron integral symmetry used in STVInt
 PrsmSu:  requested number of processors reduced to:  23 ShMem   1 Linda.
 NBasis=   567 RedAO= T EigKep=  1.94D-05  NBF=   567
 NBsUse=   567 1.00D-06 EigRej= -1.00D+00 NBFU=   567
 Precomputing XC quadrature grid using
 IXCGrd= 4 IRadAn=           5 IRanWt=          -1 IRanGd=           0 AccXCQ= 0.00D+00.
 Generated NRdTot=       0 NPtTot=           0 NUsed=           0 NTot=          32
 NSgBfM=   576   576   576   576   576 MxSgAt=    49 MxSgA2=    49.
 Leave Link  302 at Mon Feb 22 21:13:47 2021, MaxMem=   104857600 cpu:              20.4 elap:               0.7
 (Enter /sw/arch/RedHatEnterpriseServer7/EB_production/2019/software/Gaussian/g16.c01/l303.exe)
 DipDrv:  MaxL=1.
 Leave Link  303 at Mon Feb 22 21:13:48 2021, MaxMem=   104857600 cpu:               5.0 elap:               0.2
 (Enter /sw/arch/RedHatEnterpriseServer7/EB_production/2019/software/Gaussian/g16.c01/l401.exe)
 ExpMin= 9.52D-02 ExpMax= 2.70D+04 ExpMxC= 9.22D+02 IAcc=3 IRadAn=         5 AccDes= 0.00D+00
 Harris functional with IExCor=  404 and IRadAn=       5 diagonalized for initial guess.
 HarFok:  IExCor=  404 AccDes= 0.00D+00 IRadAn=         5 IDoV= 1 UseB2=F ITyADJ=14
 ICtDFT=  3500011 ScaDFX=  1.000000  1.000000  1.000000  1.000000
 FoFCou: FMM=F IPFlag=           0 FMFlag=      100000 FMFlg1=           0
         NFxFlg=           0 DoJE=T BraDBF=F KetDBF=T FulRan=T
         wScrn=  0.000000 ICntrl=       500 IOpCl=  0 I1Cent=   200000004 NGrid=           0
         NMat0=    1 NMatS0=      1 NMatT0=    0 NMatD0=    1 NMtDS0=    0 NMtDT0=    0
 Petite list used in FoFCou.
 Harris En= -892.127234143871    
 JPrj=0 DoOrth=F DoCkMO=F.
 Leave Link  401 at Mon Feb 22 21:13:50 2021, MaxMem=   104857600 cpu:              51.0 elap:               1.6
 (Enter /sw/arch/RedHatEnterpriseServer7/EB_production/2019/software/Gaussian/g16.c01/l502.exe)
 Integral symmetry usage will be decided dynamically.
 Closed shell SCF:
 Using DIIS extrapolation, IDIIS=  1040.
 NGot=   104857600 LenX=   104140088 LenY=   103793756
 Requested convergence on RMS density matrix=1.00D-08 within 128 cycles.
 Requested convergence on MAX density matrix=1.00D-06.
 Requested convergence on             energy=1.00D-06.
 No special actions if energy rises.
 Fock matrices will be formed incrementally for  20 cycles.

 Cycle   1  Pass 1  IDiag  1:
 FoFJK:  IHMeth= 1 ICntrl=     500 DoSepK=F KAlg= 0 I1Cent=           0 FoldK=F
 IRaf= 820000000 NMat=       1 IRICut=       1 DoRegI=T DoRafI=F ISym2E= 0 IDoP0=0 IntGTp=1.
 FoFCou: FMM=F IPFlag=           0 FMFlag=      100000 FMFlg1=           0
         NFxFlg=           0 DoJE=T BraDBF=F KetDBF=F FulRan=T
         wScrn=  0.000000 ICntrl=       500 IOpCl=  0 I1Cent=           0 NGrid=           0
         NMat0=    1 NMatS0=      1 NMatT0=    0 NMatD0=    1 NMtDS0=    0 NMtDT0=    0
 Symmetry not used in FoFCou.
 Inv3:  Mode=1 IEnd=    23251968.
 Iteration    1 A*A^-1 deviation from unit magnitude is 3.33D-15 for    831.
 Iteration    1 A*A^-1 deviation from orthogonality  is 1.70D-15 for   2556   1256.
 Iteration    1 A^-1*A deviation from unit magnitude is 3.33D-15 for    831.
 Iteration    1 A^-1*A deviation from orthogonality  is 2.31D-15 for   2071      3.
 E= -891.104254650630    
 DIIS: error= 2.06D-02 at cycle   1 NSaved=   1.
 NSaved= 1 IEnMin= 1 EnMin= -891.104254650630     IErMin= 1 ErrMin= 2.06D-02
 ErrMax= 2.06D-02  0.00D+00 EMaxC= 1.00D-01 BMatC= 5.69D-01 BMatP= 5.69D-01
 IDIUse=3 WtCom= 7.94D-01 WtEn= 2.06D-01
 Coeff-Com:  0.100D+01
 Coeff-En:   0.100D+01
 Coeff:      0.100D+01
 Gap=     0.032 Goal=   None    Shift=    0.000
 GapD=    0.032 DampG=0.250 DampE=0.500 DampFc=0.2500 IDamp=-1.
 Damping current iteration by 2.50D-01
 RMSDP=1.32D-02 MaxDP=2.56D+00              OVMax= 2.52D-01

 Cycle   2  Pass 1  IDiag  1:
 RMSU=  3.29D-03    CP:  1.04D+00
 E= -891.311266206875     Delta-E=       -0.207011556245 Rises=F Damp=T
 DIIS: error= 7.69D-03 at cycle   2 NSaved=   2.
 NSaved= 2 IEnMin= 2 EnMin= -891.311266206875     IErMin= 2 ErrMin= 7.69D-03
 ErrMax= 7.69D-03  0.00D+00 EMaxC= 1.00D-01 BMatC= 9.93D-02 BMatP= 5.69D-01
 IDIUse=3 WtCom= 9.23D-01 WtEn= 7.69D-02
 Coeff-Com: -0.520D+00 0.152D+01
 Coeff-En:   0.000D+00 0.100D+01
 Coeff:     -0.480D+00 0.148D+01
 Gap=     0.121 Goal=   None    Shift=    0.000
 RMSDP=2.27D-03 MaxDP=4.72D-01 DE=-2.07D-01 OVMax= 2.15D-01

 Cycle   3  Pass 1  IDiag  1:
 RMSU=  1.66D-03    CP:  1.01D+00  5.37D-01
 E= -891.592360972919     Delta-E=       -0.281094766044 Rises=F Damp=F
 DIIS: error= 1.71D-02 at cycle   3 NSaved=   3.
 NSaved= 3 IEnMin= 3 EnMin= -891.592360972919     IErMin= 2 ErrMin= 7.69D-03
 ErrMax= 1.71D-02  0.00D+00 EMaxC= 1.00D-01 BMatC= 9.01D-02 BMatP= 9.93D-02
 IDIUse=3 WtCom= 8.29D-01 WtEn= 1.71D-01
 Coeff-Com: -0.374D+00 0.997D+00 0.377D+00
 Coeff-En:   0.000D+00 0.000D+00 0.100D+01
 Coeff:     -0.310D+00 0.827D+00 0.484D+00
 Gap=     0.136 Goal=   None    Shift=    0.000
 RMSDP=2.75D-03 MaxDP=4.84D-01 DE=-2.81D-01 OVMax= 2.54D-01

 Cycle   4  Pass 1  IDiag  1:
 RMSU=  1.63D-03    CP:  1.07D+00  1.15D+00  5.29D-01
 E= -891.609054385915     Delta-E=       -0.016693412996 Rises=F Damp=F
 DIIS: error= 1.33D-02 at cycle   4 NSaved=   4.
 NSaved= 4 IEnMin= 4 EnMin= -891.609054385915     IErMin= 2 ErrMin= 7.69D-03
 ErrMax= 1.33D-02  0.00D+00 EMaxC= 1.00D-01 BMatC= 7.12D-02 BMatP= 9.01D-02
 IDIUse=3 WtCom= 8.67D-01 WtEn= 1.33D-01
 Coeff-Com: -0.114D+00 0.322D+00 0.415D+00 0.377D+00
 Coeff-En:   0.000D+00 0.000D+00 0.458D+00 0.542D+00
 Coeff:     -0.992D-01 0.280D+00 0.421D+00 0.399D+00
 Gap=     0.111 Goal=   None    Shift=    0.000
 RMSDP=1.83D-03 MaxDP=3.30D-01 DE=-1.67D-02 OVMax= 1.27D-01

 Cycle   5  Pass 1  IDiag  1:
 RMSU=  4.91D-04    CP:  1.03D+00  7.49D-01  7.29D-01  3.38D-01
 E= -891.667899224188     Delta-E=       -0.058844838273 Rises=F Damp=F
 DIIS: error= 1.44D-03 at cycle   5 NSaved=   5.
 NSaved= 5 IEnMin= 5 EnMin= -891.667899224188     IErMin= 5 ErrMin= 1.44D-03
 ErrMax= 1.44D-03  0.00D+00 EMaxC= 1.00D-01 BMatC= 2.29D-03 BMatP= 7.12D-02
 IDIUse=3 WtCom= 9.86D-01 WtEn= 1.44D-02
 Coeff-Com: -0.322D-01 0.930D-01 0.218D+00 0.250D+00 0.472D+00
 Coeff-En:   0.000D+00 0.000D+00 0.000D+00 0.000D+00 0.100D+01
 Coeff:     -0.317D-01 0.917D-01 0.215D+00 0.246D+00 0.480D+00
 Gap=     0.107 Goal=   None    Shift=    0.000
 RMSDP=2.80D-04 MaxDP=2.76D-02 DE=-5.88D-02 OVMax= 2.76D-02

 Cycle   6  Pass 1  IDiag  1:
 RMSU=  1.30D-04    CP:  1.03D+00  7.71D-01  7.04D-01  4.09D-01  5.88D-01
 E= -891.669711258569     Delta-E=       -0.001812034381 Rises=F Damp=F
 DIIS: error= 4.50D-04 at cycle   6 NSaved=   6.
 NSaved= 6 IEnMin= 6 EnMin= -891.669711258569     IErMin= 6 ErrMin= 4.50D-04
 ErrMax= 4.50D-04  0.00D+00 EMaxC= 1.00D-01 BMatC= 3.07D-04 BMatP= 2.29D-03
 IDIUse=3 WtCom= 9.95D-01 WtEn= 4.50D-03
 Coeff-Com: -0.357D-02 0.882D-02 0.520D-01 0.748D-01 0.300D+00 0.568D+00
 Coeff-En:   0.000D+00 0.000D+00 0.000D+00 0.000D+00 0.136D+00 0.864D+00
 Coeff:     -0.355D-02 0.878D-02 0.518D-01 0.744D-01 0.299D+00 0.569D+00
 Gap=     0.108 Goal=   None    Shift=    0.000
 RMSDP=7.12D-05 MaxDP=3.54D-03 DE=-1.81D-03 OVMax= 1.02D-02

 Cycle   7  Pass 1  IDiag  1:
 RMSU=  5.16D-05    CP:  1.03D+00  7.75D-01  7.16D-01  4.04D-01  6.27D-01
                    CP:  7.20D-01
 E= -891.669936965049     Delta-E=       -0.000225706480 Rises=F Damp=F
 DIIS: error= 2.73D-04 at cycle   7 NSaved=   7.
 NSaved= 7 IEnMin= 7 EnMin= -891.669936965049     IErMin= 7 ErrMin= 2.73D-04
 ErrMax= 2.73D-04  0.00D+00 EMaxC= 1.00D-01 BMatC= 6.14D-05 BMatP= 3.07D-04
 IDIUse=3 WtCom= 9.97D-01 WtEn= 2.73D-03
 Coeff-Com: -0.813D-03 0.795D-03 0.187D-01 0.306D-01 0.166D+00 0.391D+00
 Coeff-Com:  0.394D+00
 Coeff-En:   0.000D+00 0.000D+00 0.000D+00 0.000D+00 0.000D+00 0.171D+00
 Coeff-En:   0.829D+00
 Coeff:     -0.811D-03 0.793D-03 0.186D-01 0.305D-01 0.166D+00 0.390D+00
 Coeff:      0.395D+00
 Gap=     0.107 Goal=   None    Shift=    0.000
 RMSDP=3.52D-05 MaxDP=3.63D-03 DE=-2.26D-04 OVMax= 3.91D-03

 Cycle   8  Pass 1  IDiag  1:
 RMSU=  2.18D-05    CP:  1.03D+00  7.75D-01  7.17D-01  4.05D-01  6.36D-01
                    CP:  6.93D-01  4.89D-01
 E= -891.669993778554     Delta-E=       -0.000056813505 Rises=F Damp=F
 DIIS: error= 5.96D-05 at cycle   8 NSaved=   8.
 NSaved= 8 IEnMin= 8 EnMin= -891.669993778554     IErMin= 8 ErrMin= 5.96D-05
 ErrMax= 5.96D-05  0.00D+00 EMaxC= 1.00D-01 BMatC= 4.07D-06 BMatP= 6.14D-05
 IDIUse=1 WtCom= 1.00D+00 WtEn= 0.00D+00
 Coeff-Com: -0.358D-03 0.231D-03 0.256D-02 0.388D-02 0.483D-01 0.134D+00
 Coeff-Com:  0.228D+00 0.584D+00
 Coeff:     -0.358D-03 0.231D-03 0.256D-02 0.388D-02 0.483D-01 0.134D+00
 Coeff:      0.228D+00 0.584D+00
 Gap=     0.107 Goal=   None    Shift=    0.000
[...]
    37  H   -0.000000   0.000000   0.000038   0.000000  -0.000068   0.000001
    38  H   -0.000023   0.000129  -0.000634   0.000539   0.005418  -0.000084
    39  H    0.000074   0.000041   0.002441  -0.000016  -0.000001   0.000009
    40  H   -0.000006  -0.000006   0.000014  -0.000566   0.000096   0.003735
    41  H   -0.000003   0.000002  -0.000067   0.000122  -0.000255   0.000012
    42  H    0.000059  -0.000008  -0.000393   0.003123  -0.000074   0.000469
    43  H    0.000145   0.007486   0.000141   0.000375   0.007244   0.005037
    44  H    0.000017   0.000016  -0.000003   0.000011   0.000064  -0.000005
    45  H    0.000071  -0.000055   0.000007  -0.000051   0.000023   0.003192
    46  H   -0.000020   0.000083  -0.000002   0.000006  -0.000005  -0.000118
    47  H    0.000018  -0.000123  -0.000000  -0.000004  -0.000004  -0.000012
    48  H    0.000030   0.011119  -0.000116   0.000060  -0.000065  -0.000092
    49  H    0.002677  -0.000489   0.000019   0.000015   0.000005   0.000007
              31         32         33         34         35         36
     1  C    0.000053   0.000225  -0.000003   0.000001  -0.000000  -0.000000
     2  C   -0.000209   0.001843  -0.000076   0.000088  -0.000001  -0.000001
     3  C    0.000894  -0.000220  -0.000038   0.000014  -0.000003   0.000009
     4  C   -0.000995  -0.000429   0.000248   0.000054   0.000093  -0.000120
     5  C   -0.022680   0.012803  -0.018689  -0.001490  -0.001663   0.001414
     6  C   -0.020984  -0.030940  -0.001540   0.012868   0.000459  -0.000038
     7  C    0.410042   0.407252  -0.049786  -0.030206   0.000134   0.000004
     8  C   -0.029756  -0.039957   0.429995   0.410546  -0.018784  -0.001100
     9  C   -0.000888   0.012258  -0.038724  -0.057715  -0.025546  -0.023631
    10  C   -0.002283  -0.001019  -0.010198  -0.016197   0.393426   0.015547
    11  C   -0.000445   0.000034  -0.001165   0.003119  -0.068551  -0.023020
    12  O   -0.000005  -0.000000   0.000014  -0.000019   0.006640   0.005283
    13  C   -0.000230  -0.000029  -0.000565  -0.000505   0.018650   0.368172
    14  C    0.000666   0.000277   0.002130  -0.000391  -0.004177  -0.025364
    15  C   -0.005274   0.004535   0.003245   0.021070   0.018318   0.005223
    16  C    0.000329   0.000483   0.004136   0.000702  -0.000649   0.011973
    17  C   -0.018653  -0.022314  -0.001679  -0.001918   0.000004   0.000000
    18  C   -0.005201   0.009450  -0.000133  -0.000025  -0.000001   0.000000
    19  C   -0.000100   0.000267  -0.000007   0.000003   0.000000  -0.000000
    20  C   -0.000456  -0.000245  -0.000002  -0.000007  -0.000000  -0.000000
    21  O    0.000000  -0.000001   0.000000   0.000000   0.000000   0.000000
    22  H   -0.000019  -0.000044   0.000022  -0.000003   0.000000  -0.000000
    23  H    0.000002   0.000002   0.000004  -0.000000  -0.000000   0.000000
    24  H    0.000000  -0.000005   0.000001   0.000000   0.000000  -0.000000
    25  H    0.000001  -0.000005  -0.000000   0.000000   0.000000  -0.000000
    26  H   -0.000028   0.000027  -0.000002   0.000000  -0.000000  -0.000000
    27  H    0.000053   0.000005   0.000025  -0.000003  -0.000001   0.000052
    28  H    0.000015   0.000022  -0.000055   0.000002  -0.000003   0.000001
    29  H    0.006274   0.000350   0.000388   0.000278  -0.000111   0.000052
    30  H    0.007087  -0.001937   0.004330   0.000282  -0.000001  -0.000003
    31  H    0.556001  -0.024087   0.007492  -0.003454   0.000114   0.000001
    32  H   -0.024087   0.518187  -0.003770   0.000714  -0.000086   0.000001
    33  H    0.007492  -0.003770   0.512831  -0.020462   0.000530   0.000048
    34  H   -0.003454   0.000714  -0.020462   0.525212   0.004309   0.000032
    35  H    0.000114  -0.000086   0.000530   0.004309   0.547792  -0.000668
    36  H    0.000001   0.000001   0.000048   0.000032  -0.000668   0.496768
    37  H   -0.000000   0.000000  -0.000006  -0.000003  -0.000406  -0.011042
    38  H   -0.000141  -0.000007  -0.000085   0.000075  -0.000210   0.006408
    39  H    0.000031  -0.000002   0.000075  -0.000010   0.000125  -0.007189
    40  H   -0.000045   0.000203  -0.001985   0.000202   0.000012  -0.000029
    41  H    0.000003  -0.000013   0.000551  -0.000146   0.000076   0.000221
    42  H    0.000003  -0.000004  -0.000050   0.000015   0.000023  -0.000792
    43  H    0.005493   0.000537   0.000020   0.000031   0.000000  -0.000000
    44  H    0.000346  -0.000448   0.000019   0.000024  -0.000000  -0.000000
    45  H    0.000678  -0.000805   0.000070  -0.000000   0.000000  -0.000000
    46  H   -0.000002   0.000016   0.000000   0.000000  -0.000000  -0.000000
    47  H    0.000005   0.000002   0.000000  -0.000000   0.000000   0.000000
    48  H   -0.000017   0.000022   0.000000   0.000000  -0.000000  -0.000000
    49  H    0.000000  -0.000000  -0.000000   0.000000   0.000000   0.000000
              37         38         39         40         41         42
     1  C    0.000000  -0.000005  -0.000009   0.000185   0.000031  -0.000036
     2  C   -0.000000  -0.000163   0.000105   0.000318  -0.000068   0.000124
     3  C    0.000001   0.000748  -0.000854   0.000115   0.000058  -0.000661
     4  C   -0.000055  -0.010846   0.004976  -0.003493   0.001199  -0.005651
     5  C    0.000311   0.004824  -0.039309  -0.018711   0.018792   0.001274
     6  C    0.000051   0.001376   0.001944   0.004670   0.000487  -0.003493
     7  C   -0.000015   0.001302   0.000066  -0.002860   0.000367   0.000111
     8  C    0.000226  -0.003120  -0.000638   0.008006  -0.006880   0.001117
     9  C   -0.006278  -0.021265   0.029080  -0.025524  -0.015484   0.021448
    10  C    0.028267  -0.007436  -0.002765  -0.001590   0.013810  -0.000085
    11  C   -0.049552   0.002229   0.002013  -0.000031  -0.002558  -0.000043
    12  O    0.011006   0.001451  -0.000643  -0.000000  -0.000027  -0.000003
    13  C    0.378843  -0.036444   0.001441   0.000158   0.000422   0.001895
    14  C   -0.028950   0.388418   0.386238   0.013354  -0.013876  -0.014355
    15  C    0.011931  -0.029055  -0.028401  -0.012696  -0.026930  -0.052467
    16  C   -0.001003   0.014746  -0.009878   0.406124   0.392865   0.408345
    17  C   -0.000001  -0.000294  -0.000021  -0.003800   0.000245   0.000288
    18  C    0.000000   0.000018  -0.000008   0.000208  -0.000001  -0.000027
    19  C   -0.000000  -0.000001   0.000000  -0.000015  -0.000000   0.000001
    20  C    0.000000  -0.000007  -0.000003  -0.000005   0.000001   0.000001
    21  O   -0.000000  -0.000000   0.000000  -0.000000  -0.000000   0.000000
    22  H    0.000000  -0.000010   0.000014   0.000420   0.000022   0.000017
    23  H    0.000000   0.000000  -0.000000   0.000014  -0.000001  -0.000005
    24  H   -0.000000   0.000000   0.000002  -0.000023  -0.000001   0.000011
    25  H   -0.000000  -0.000023   0.000074  -0.000006  -0.000003   0.000059
    26  H    0.000000   0.000129   0.000041  -0.000006   0.000002  -0.000008
    27  H    0.000038  -0.000634   0.002441   0.000014  -0.000067  -0.000393
    28  H    0.000000   0.000539  -0.000016  -0.000566   0.000122   0.003123
    29  H   -0.000068   0.005418  -0.000001   0.000096  -0.000255  -0.000074
    30  H    0.000001  -0.000084   0.000009   0.003735   0.000012   0.000469
    31  H   -0.000000  -0.000141   0.000031  -0.000045   0.000003   0.000003
    32  H    0.000000  -0.000007  -0.000002   0.000203  -0.000013  -0.000004
    33  H   -0.000006  -0.000085   0.000075  -0.001985   0.000551  -0.000050
    34  H   -0.000003   0.000075  -0.000010   0.000202  -0.000146   0.000015
    35  H   -0.000406  -0.000210   0.000125   0.000012   0.000076   0.000023
    36  H   -0.011042   0.006408  -0.007189  -0.000029   0.000221  -0.000792
    37  H    0.506972  -0.002388  -0.003231   0.000009   0.000073  -0.000023
    38  H   -0.002388   0.535313  -0.024043  -0.000316  -0.000268   0.000267
    39  H   -0.003231  -0.024043   0.516424  -0.000216   0.000617   0.002299
    40  H    0.000009  -0.000316  -0.000216   0.511382  -0.024188  -0.021669
    41  H    0.000073  -0.000268   0.000617  -0.024188   0.517388  -0.021726
    42  H   -0.000023   0.000267   0.002299  -0.021669  -0.021726   0.511396
    43  H    0.000000  -0.000048   0.000015   0.000014   0.000003   0.000005
    44  H   -0.000000   0.000000   0.000000  -0.000001  -0.000000  -0.000000
    45  H   -0.000000  -0.000000   0.000000  -0.000008   0.000001   0.000004
    46  H    0.000000  -0.000000   0.000000   0.000000  -0.000000  -0.000000
    47  H    0.000000  -0.000000  -0.000000   0.000000   0.000000   0.000000
    48  H    0.000000  -0.000001   0.000001  -0.000000  -0.000000  -0.000000
    49  H   -0.000000   0.000000  -0.000000  -0.000000  -0.000000   0.000000
              43         44         45         46         47         48
     1  C    0.018618   0.000122   0.004490   0.010609   0.000469   0.020208
     2  C   -0.069397   0.010255  -0.009610  -0.010603   0.011876  -0.061104
     3  C   -0.008535  -0.001082   0.000162  -0.002631  -0.000402  -0.042375
     4  C    0.002221  -0.000030   0.000598  -0.000033   0.000135   0.000099
     5  C   -0.028940   0.000039  -0.001501   0.000162  -0.000071   0.001310
     6  C    0.007951  -0.012267  -0.003620   0.000205  -0.001044   0.000390
     7  C   -0.014564   0.006620  -0.005748   0.000053  -0.000033   0.000145
     8  C    0.000603  -0.000029  -0.000331   0.000003  -0.000003   0.000006
     9  C   -0.001033  -0.000051   0.000040  -0.000002   0.000001  -0.000004
    10  C   -0.000303  -0.000001  -0.000002  -0.000000   0.000000  -0.000001
    11  C    0.000009   0.000000   0.000000  -0.000000  -0.000000   0.000000
    12  O   -0.000000   0.000000   0.000000  -0.000000   0.000000  -0.000000
    13  C   -0.000015   0.000000  -0.000000  -0.000000  -0.000000  -0.000000
    14  C   -0.000012  -0.000003   0.000004   0.000000   0.000000   0.000000
    15  C    0.001416   0.000023  -0.000177   0.000005  -0.000003   0.000095
    16  C   -0.000070   0.000011  -0.000088   0.000001  -0.000000   0.000003
    17  C    0.417508  -0.021256  -0.042279  -0.000986   0.000257  -0.033330
    18  C   -0.035839   0.390172   0.425385  -0.029687  -0.010111   0.014403
    19  C   -0.005698  -0.018945  -0.032608   0.382356   0.376875  -0.089857
    20  C   -0.005364   0.005082  -0.008098  -0.027562  -0.023318   0.486241
    21  O   -0.000452  -0.000123  -0.000016   0.011189   0.003020  -0.042725
    22  H    0.000008  -0.000051  -0.000035   0.000313  -0.000006  -0.000004
    23  H   -0.000399   0.000157  -0.000867  -0.002858   0.000288  -0.000585
    24  H   -0.000372   0.000042  -0.000050   0.000759  -0.000125   0.001020
    25  H    0.000145   0.000017   0.000071  -0.000020   0.000018   0.000030
    26  H    0.007486   0.000016  -0.000055   0.000083  -0.000123   0.011119
    27  H    0.000141  -0.000003   0.000007  -0.000002  -0.000000  -0.000116
    28  H    0.000375   0.000011  -0.000051   0.000006  -0.000004   0.000060
    29  H    0.007244   0.000064   0.000023  -0.000005  -0.000004  -0.000065
    30  H    0.005037  -0.000005   0.003192  -0.000118  -0.000012  -0.000092
    31  H    0.005493   0.000346   0.000678  -0.000002   0.000005  -0.000017
    32  H    0.000537  -0.000448  -0.000805   0.000016   0.000002   0.000022
    33  H    0.000020   0.000019   0.000070   0.000000   0.000000   0.000000
    34  H    0.000031   0.000024  -0.000000   0.000000  -0.000000   0.000000
    35  H    0.000000  -0.000000   0.000000  -0.000000   0.000000  -0.000000
    36  H   -0.000000  -0.000000  -0.000000  -0.000000   0.000000  -0.000000
    37  H    0.000000  -0.000000  -0.000000   0.000000   0.000000   0.000000
    38  H   -0.000048   0.000000  -0.000000  -0.000000  -0.000000  -0.000001
    39  H    0.000015   0.000000   0.000000   0.000000  -0.000000   0.000001
    40  H    0.000014  -0.000001  -0.000008   0.000000   0.000000  -0.000000
    41  H    0.000003  -0.000000   0.000001  -0.000000   0.000000  -0.000000
    42  H    0.000005  -0.000000   0.000004  -0.000000   0.000000  -0.000000
    43  H    0.501830  -0.005655   0.006142   0.000082   0.001205   0.005972
    44  H   -0.005655   0.518006  -0.023061   0.003927  -0.008566   0.000988
    45  H    0.006142  -0.023061   0.537249  -0.012597   0.005271  -0.001091
    46  H    0.000082   0.003927  -0.012597   0.538361  -0.021445   0.010182
    47  H    0.001205  -0.008566   0.005271  -0.021445   0.528728  -0.010061
    48  H    0.005972   0.000988  -0.001091   0.010182  -0.010061   0.580473
    49  H   -0.000073   0.000026   0.000059  -0.000867  -0.000367  -0.011150
              49
     1  C   -0.009256
     2  C    0.000850
     3  C    0.008491
     4  C   -0.000373
     5  C   -0.000016
     6  C   -0.000212
     7  C   -0.000002
     8  C   -0.000000
     9  C    0.000000
    10  C    0.000000
    11  C    0.000000
    12  O    0.000000
    13  C   -0.000000
    14  C    0.000000
    15  C   -0.000006
    16  C   -0.000000
    17  C    0.003114
    18  C   -0.002527
    19  C    0.020409
    20  C   -0.051055
    21  O    0.305772
    22  H   -0.000097
    23  H    0.000239
    24  H    0.001804
    25  H    0.002677
    26  H   -0.000489
    27  H    0.000019
    28  H    0.000015
    29  H    0.000005
    30  H    0.000007
    31  H    0.000000
    32  H   -0.000000
    33  H   -0.000000
    34  H    0.000000
    35  H    0.000000
    36  H    0.000000
    37  H   -0.000000
    38  H    0.000000
    39  H   -0.000000
    40  H   -0.000000
    41  H   -0.000000
    42  H    0.000000
    43  H   -0.000073
    44  H    0.000026
    45  H    0.000059
    46  H   -0.000867
    47  H   -0.000367
    48  H   -0.011150
    49  H    0.428201
 Mulliken charges:
               1
     1  C   -0.484232
     2  C   -0.015760
     3  C   -0.187409
     4  C   -0.318258
     5  C   -0.191337
     6  C   -0.128900
     7  C   -0.261589
     8  C   -0.263037
     9  C   -0.142023
    10  C   -0.112396
    11  C    0.132257
    12  O   -0.372255
    13  C   -0.254084
    14  C   -0.334787
    15  C    0.127330
    16  C   -0.487607
    17  C   -0.343469
    18  C   -0.306319
    19  C   -0.272184
    20  C   -0.066187
    21  O   -0.389344
    22  H    0.166695
    23  H    0.158343
    24  H    0.143503
    25  H    0.142772
    26  H    0.137919
    27  H    0.155858
    28  H    0.166367
    29  H    0.183826
    30  H    0.195535
    31  H    0.140369
    32  H    0.156850
    33  H    0.182847
    34  H    0.152915
    35  H    0.130154
    36  H    0.181788
    37  H    0.165292
    38  H    0.173632
    39  H    0.169203
    40  H    0.168541
    41  H    0.165124
    42  H    0.169271
    43  H    0.186657
    44  H    0.155608
    45  H    0.159255
    46  H    0.151104
    47  H    0.147549
    48  H    0.159808
    49  H    0.304804
 Sum of Mulliken charges =  -0.00000
 Mulliken charges with hydrogens summed into heavy atoms:
               1
     1  C   -0.015692
     2  C   -0.015760
     3  C    0.093282
     4  C    0.003967
     5  C   -0.007511
     6  C    0.066635
     7  C    0.035629
     8  C    0.072725
     9  C   -0.142023
    10  C    0.017758
    11  C    0.132257
    12  O   -0.372255
    13  C    0.092996
    14  C    0.008049
    15  C    0.127330
    16  C    0.015329
    17  C   -0.156812
    18  C    0.008544
    19  C    0.026469
    20  C    0.093621
    21  O   -0.084539
 Electronic spatial extent (au):  <R**2>=           7254.4510
 Charge=             -0.0000 electrons
 Dipole moment (field-independent basis, Debye):
    X=             -4.6960    Y=             -1.1730    Z=              1.7731  Tot=              5.1549
 Quadrupole moment (field-independent basis, Debye-Ang):
   XX=           -199.2401   YY=           -119.0784   ZZ=           -129.0946
   XY=             -2.1549   XZ=             16.1431   YZ=              2.6773
 Traceless Quadrupole moment (field-independent basis, Debye-Ang):
   XX=            -50.1024   YY=             30.0593   ZZ=             20.0431
   XY=             -2.1549   XZ=             16.1431   YZ=              2.6773
 Octapole moment (field-independent basis, Debye-Ang**2):
  XXX=           -221.8680  YYY=            -12.7166  ZZZ=             -2.7609  XYY=             -9.5479
  XXY=            -31.4784  XXZ=             62.0227  XZZ=            -17.4930  YZZ=             -2.6961
  YYZ=             -4.5364  XYZ=             -4.5663
 Hexadecapole moment (field-independent basis, Debye-Ang**3):
 XXXX=         -10624.2314 YYYY=          -1459.2178 ZZZZ=           -681.1947 XXXY=            -92.0223
 XXXZ=            477.7466 YYYX=             91.0651 YYYZ=             11.5348 ZZZX=             28.9258
 ZZZY=             11.3307 XXYY=          -1369.3597 XXZZ=          -1426.3840 YYZZ=           -361.2553
 XXYZ=             48.2395 YYXZ=             19.6090 ZZXY=             -4.7263
 N-N= 1.824477745449D+03 E-N=-5.720388699820D+03  KE= 8.871086123710D+02
 Unable to Open any file for archive entry.
 1\1\GINC-TCN1741\SP\RBP86\TZVP\C19H28O2\ELENAA\22-Feb-2021\0\\# BP86/T
 ZVP SCRF=COSMORS geom=CHECKPOINT guess=CHECKPOINT\\COSMO-file for #MUM
 GGOZAMZWBJJ-DYKIIFRCSA-N\\0,1\C,0,-7.3242462851,-0.8251125564,2.660530
 7621\C,0,-6.1750534198,-0.9224393718,3.6826371868\C,0,-5.4214187033,0.
 4104642424,3.7828961034\C,0,-4.6481526122,0.7097947128,2.4822622803\C,
 0,-3.707843141,-0.4414311531,2.0557576867\C,0,-4.4334168947,-1.8133195
 048,2.014531121\C,0,-3.4292572303,-2.9327556198,1.7213713737\C,0,-2.66
 89015677,-2.6688208593,0.4119113947\C,0,-2.0253637738,-1.3095736436,0.
 3879383619\C,0,-0.720643223,-1.1770843332,0.0292010177\C,0,-0.06003246
 02,0.1074544333,-0.1959525793\O,0,1.1327374356,0.1805024773,-0.5349414
 792\C,0,-0.9347861911,1.3381432141,-0.0637919238\C,0,-2.0343833636,1.1
 377031157,0.9832277266\C,0,-2.9119611198,-0.1158494224,0.7360737447\C,
 0,-3.8669347828,0.1343464782,-0.4626310652\C,0,-5.1494913588,-2.031369
 0332,3.3483544535\C,0,-5.9201703891,-3.345669299,3.5923371218\C,0,-6.8
 880452132,-3.0000871582,4.7651244684\C,0,-6.715254203,-1.4837730987,5.
 024010733\O,0,-7.9607317985,-0.9286252818,5.4891903203\H,0,-6.96374555
 24,-0.5422071226,1.6625106878\H,0,-7.870424778,-1.7735245873,2.5583131
 01\H,0,-8.0466134474,-0.0632255913,2.9886065058\H,0,-6.1127195443,1.24
 32964618,4.0006112754\H,0,-4.7093357912,0.3533103217,4.626545862\H,0,-
 4.0673506156,1.6337732744,2.6204658626\H,0,-5.3669711305,0.9176472578,
 1.6744196933\H,0,-2.9374230681,-0.5380200505,2.8481571389\H,0,-5.18791
 93726,-1.8070627106,1.2068332364\H,0,-2.7105076901,-3.0023650595,2.558
 0406483\H,0,-3.9429484845,-3.904608714,1.6579208123\H,0,-3.3910282882,
 -2.7176070265,-0.4248217237\H,0,-1.9157532135,-3.4484852461,0.22284353
 02\H,0,-0.1185288015,-2.0667338927,-0.1837265051\H,0,-1.3744778596,1.5
 2922043,-1.0596040876\H,0,-0.3000100035,2.2047470928,0.1722628162\H,0,
 -1.5608528832,1.0386729527,1.9756490815\H,0,-2.6704386142,2.0337149346
 ,1.0215061924\H,0,-4.5725851026,-0.6954188753,-0.6042337605\H,0,-3.297
 921122,0.2501653447,-1.3965625117\H,0,-4.4491718851,1.0528997774,-0.30
 51498817\H,0,-4.3662892028,-1.9690318607,4.1326905923\H,0,-5.247262655
 3,-4.1794937888,3.8363045489\H,0,-6.4794325224,-3.6371252179,2.6889234
 104\H,0,-7.9373024084,-3.191983221,4.4935075317\H,0,-6.6765708648,-3.5
 839263881,5.6717573652\H,0,-5.9362765825,-1.3201649838,5.7956452302\H,
 0,-7.7989382208,0.0079481502,5.7043145383\\Version=ES64L-G16RevC.01\St
 ate=1-A\HF=-891.6284742\RMSD=1.947e-09\Dipole=-1.9479544,0.0484169,0.5
 623605\Quadrupole=-29.0724921,20.3630496,8.7094424,-9.2909717,20.38184
 25,5.9585584\PG=C01 [X(C19H28O2)]\\@
 The archive entry for this job was punched.


 IF YOU DON'T HAVE THE LAW - ARGUE THE FACTS.
 IF YOU DON'T HAVE THE FACTS - ARGUE THE LAW.
 IF YOU DON'T HAVE EITHER - POUND THE TABLE.
 Job cpu time:       0 days  0 hours 50 minutes  6.6 seconds.
 Elapsed time:       0 days  0 hours  1 minutes 35.4 seconds.
 File lengths (MBytes):  RWF=    227 Int=      0 D2E=      0 Chk=     30 Scr=      1
 Normal termination of Gaussian 16 at Mon Feb 22 21:35:06 2021.
