 Entering Gaussian System, Link 0=g16
 Input=NEUNOKQNYOCZNP-UHFFFAOYSA-N.gjf
 Output=NEUNOKQNYOCZNP-UHFFFAOYSA-N.log
 Initial command:
 /sw/arch/RedHatEnterpriseServer7/EB_production/2019/software/Gaussian/g16.c01/l1.exe "/scratch-local/elenaa.9715941/Gau-2281.inp" -scrdir="/scratch-local/elenaa.9715941/"
 Entering Link 1 = /sw/arch/RedHatEnterpriseServer7/EB_production/2019/software/Gaussian/g16.c01/l1.exe PID=      2283.
  
 Copyright (c) 1988-2019, Gaussian, Inc.  All Rights Reserved.
  
 This is part of the Gaussian(R) 16 program.  It is based on
 the Gaussian(R) 09 system (copyright 2009, Gaussian, Inc.),
 the Gaussian(R) 03 system (copyright 2003, Gaussian, Inc.),
 the Gaussian(R) 98 system (copyright 1998, Gaussian, Inc.),
 the Gaussian(R) 94 system (copyright 1995, Gaussian, Inc.),
 the Gaussian 92(TM) system (copyright 1992, Gaussian, Inc.),
 the Gaussian 90(TM) system (copyright 1990, Gaussian, Inc.),
 the Gaussian 88(TM) system (copyright 1988, Gaussian, Inc.),
 the Gaussian 86(TM) system (copyright 1986, Carnegie Mellon
 University), and the Gaussian 82(TM) system (copyright 1983,
 Carnegie Mellon University). Gaussian is a federally registered
 trademark of Gaussian, Inc.
  
 This software contains proprietary and confidential information,
 including trade secrets, belonging to Gaussian, Inc.
  
 This software is provided under written license and may be
 used, copied, transmitted, or stored only in accord with that
 written license.
  
 The following legend is applicable only to US Government
 contracts under FAR:
  
                    RESTRICTED RIGHTS LEGEND
  
 Use, reproduction and disclosure by the US Government is
 subject to restrictions as set forth in subparagraphs (a)
 and (c) of the Commercial Computer Software - Restricted
 Rights clause in FAR 52.227-19.
  
 Gaussian, Inc.
 340 Quinnipiac St., Bldg. 40, Wallingford CT 06492
  
  
 ---------------------------------------------------------------
 Warning -- This program may not be used in any manner that
 competes with the business of Gaussian, Inc. or will provide
 assistance to any competitor of Gaussian, Inc.  The licensee
 of this program is prohibited from giving any competitor of
 Gaussian, Inc. access to this program.  By using this program,
 the user acknowledges that Gaussian, Inc. is engaged in the
 business of creating and licensing software in the field of
 computational chemistry and represents and warrants to the
 licensee that it is not a competitor of Gaussian, Inc. and that
 it will not use this program in any manner prohibited above.
 ---------------------------------------------------------------
  

 Cite this work as:
 Gaussian 16, Revision C.01,
 M. J. Frisch, G. W. Trucks, H. B. Schlegel, G. E. Scuseria, 
 M. A. Robb, J. R. Cheeseman, G. Scalmani, V. Barone, 
 G. A. Petersson, H. Nakatsuji, X. Li, M. Caricato, A. V. Marenich, 
 J. Bloino, B. G. Janesko, R. Gomperts, B. Mennucci, H. P. Hratchian, 
 J. V. Ortiz, A. F. Izmaylov, J. L. Sonnenberg, D. Williams-Young, 
 F. Ding, F. Lipparini, F. Egidi, J. Goings, B. Peng, A. Petrone, 
 T. Henderson, D. Ranasinghe, V. G. Zakrzewski, J. Gao, N. Rega, 
 G. Zheng, W. Liang, M. Hada, M. Ehara, K. Toyota, R. Fukuda, 
 J. Hasegawa, M. Ishida, T. Nakajima, Y. Honda, O. Kitao, H. Nakai, 
 T. Vreven, K. Throssell, J. A. Montgomery, Jr., J. E. Peralta, 
 F. Ogliaro, M. J. Bearpark, J. J. Heyd, E. N. Brothers, K. N. Kudin, 
 V. N. Staroverov, T. A. Keith, R. Kobayashi, J. Normand, 
 K. Raghavachari, A. P. Rendell, J. C. Burant, S. S. Iyengar, 
 J. Tomasi, M. Cossi, J. M. Millam, M. Klene, C. Adamo, R. Cammi, 
 J. W. Ochterski, R. L. Martin, K. Morokuma, O. Farkas, 
 J. B. Foresman, and D. J. Fox, Gaussian, Inc., Wallingford CT, 2019.
 
 ******************************************
 Gaussian 16:  ES64L-G16RevC.01  3-Jul-2019
                23-Feb-2021 
 ******************************************
 %chk=NEUNOKQNYOCZNP-UHFFFAOYSA-N.chk
 %NProcShared=32
 Will use up to   32 processors via shared memory.
 -------------------------------------------------------------
 #P BP86/TZVP EmpiricalDispersion=GD3 SCRF=(Solvent=Water) Opt
 -------------------------------------------------------------
 1/18=20,19=15,26=3,38=1/1,3;
 2/9=110,12=2,17=6,18=5,40=1/2;
 3/5=19,7=101,11=2,25=1,30=1,70=2201,71=1,72=1,74=404,124=31/1,2,3;
 4//1;
 5/5=2,38=5,53=1/2;
 6/7=2,8=2,9=2,10=2,28=1/1;
 7//1,2,3,16;
 1/18=20,19=15,26=3/3(2);
 2/9=110/2;
 99//99;
 2/9=110/2;
 3/5=19,7=101,11=2,25=1,30=1,70=2205,71=1,72=1,74=404,124=31/1,2,3;
 4/5=5,16=3,69=1/1;
 5/5=2,38=5,53=1/2;
 7//1,2,3,16;
 1/18=20,19=15,26=3/3(-5);
 2/9=110/2;
 6/7=2,8=2,9=2,10=2,19=2,28=1/1;
 99/9=1/99;
 Leave Link    1 at Tue Feb 23 00:11:08 2021, MaxMem=           0 cpu:              10.5 elap:               0.4
 (Enter /sw/arch/RedHatEnterpriseServer7/EB_production/2019/software/Gaussian/g16.c01/l101.exe)
 -------------------------------------
 Particle #NEUNOKQNYOCZNP-UHFFFAOYSA-N
 -------------------------------------
 Symbolic Z-matrix:
 Charge =  1 Multiplicity = 1
 C                    -2.6261   -0.86353   2.24921 
 N                    -1.64699  -1.21578   1.14703 
 C                    -2.41202  -1.17441  -0.15988 
 C                    -0.54321  -0.16412   1.13975 
 C                     0.50601  -0.19435  -0.0067 
 O                     1.57615   0.69895   0.28953 
 C                    -1.12621  -2.63509   1.3553 
 C                    -0.39113  -2.93019   2.62766 
 C                    -1.07784  -3.42325   3.7643 
 C                    -0.39031  -3.70952   4.95804 
 C                     0.99859  -3.50827   5.03228 
 C                     1.69829  -3.02163   3.91533 
 C                     1.01035  -2.74329   2.72095 
 H                    -3.11273   0.09934   2.06566 
 H                    -3.41602  -1.61356   2.34003 
 H                    -2.12983  -0.78869   3.21982 
 H                    -1.79274  -1.49797  -0.99983 
 H                    -3.28559  -1.83252  -0.13601 
 H                    -2.77096  -0.16651  -0.38681 
 H                    -0.98375   0.83862   1.10425 
 H                     0.00968  -0.21125   2.08151 
 H                     0.92452  -1.18946  -0.13862 
 H                     0.05123   0.12356  -0.94625 
 H                     2.1946    0.62175  -0.46598 
 H                    -0.47938  -2.92041   0.52088 
 H                    -1.96323  -3.33994   1.29131 
 H                    -2.09025  -3.57721   3.7319 
 H                    -0.89713  -4.0625    5.77059 
 H                     1.49861  -3.71409   5.89911 
 H                     2.70846  -2.87046   3.96989 
 H                     1.54411  -2.40234   1.92124 
 
 ITRead=  0  0  0  0  0  0  0  0  0  0  0  0  0  0  0  0  0  0  0  0
 ITRead=  0  0  0  0  0  0  0  0  0  0  0
 MicOpt= -1 -1 -1 -1 -1 -1 -1 -1 -1 -1 -1 -1 -1 -1 -1 -1 -1 -1 -1 -1
 MicOpt= -1 -1 -1 -1 -1 -1 -1 -1 -1 -1 -1
 NAtoms=     31 NQM=       31 NQMF=       0 NMMI=      0 NMMIF=      0
                NMic=       0 NMicF=      0.
                    Isotopes and Nuclear Properties:
 (Nuclear quadrupole moments (NQMom) in fm**2, nuclear magnetic moments (NMagM)
  in nuclear magnetons)

  Atom         1           2           3           4           5           6           7           8           9          10
 IAtWgt=          12          14          12          12          12          16          12          12          12          12
 AtmWgt=  12.0000000  14.0030740  12.0000000  12.0000000  12.0000000  15.9949146  12.0000000  12.0000000  12.0000000  12.0000000
 NucSpn=           0           2           0           0           0           0           0           0           0           0
 AtZEff=  -0.0000000  -0.0000000  -0.0000000  -0.0000000  -0.0000000  -0.0000000  -0.0000000  -0.0000000  -0.0000000  -0.0000000
 NQMom=    0.0000000   2.0440000   0.0000000   0.0000000   0.0000000   0.0000000   0.0000000   0.0000000   0.0000000   0.0000000
 NMagM=    0.0000000   0.4037610   0.0000000   0.0000000   0.0000000   0.0000000   0.0000000   0.0000000   0.0000000   0.0000000
 AtZNuc=   6.0000000   7.0000000   6.0000000   6.0000000   6.0000000   8.0000000   6.0000000   6.0000000   6.0000000   6.0000000

  Atom        11          12          13          14          15          16          17          18          19          20
 IAtWgt=          12          12          12           1           1           1           1           1           1           1
 AtmWgt=  12.0000000  12.0000000  12.0000000   1.0078250   1.0078250   1.0078250   1.0078250   1.0078250   1.0078250   1.0078250
 NucSpn=           0           0           0           1           1           1           1           1           1           1
 AtZEff=  -0.0000000  -0.0000000  -0.0000000  -0.0000000  -0.0000000  -0.0000000  -0.0000000  -0.0000000  -0.0000000  -0.0000000
 NQMom=    0.0000000   0.0000000   0.0000000   0.0000000   0.0000000   0.0000000   0.0000000   0.0000000   0.0000000   0.0000000
 NMagM=    0.0000000   0.0000000   0.0000000   2.7928460   2.7928460   2.7928460   2.7928460   2.7928460   2.7928460   2.7928460
 AtZNuc=   6.0000000   6.0000000   6.0000000   1.0000000   1.0000000   1.0000000   1.0000000   1.0000000   1.0000000   1.0000000

  Atom        21          22          23          24          25          26          27          28          29          30
 IAtWgt=           1           1           1           1           1           1           1           1           1           1
 AtmWgt=   1.0078250   1.0078250   1.0078250   1.0078250   1.0078250   1.0078250   1.0078250   1.0078250   1.0078250   1.0078250
 NucSpn=           1           1           1           1           1           1           1           1           1           1
 AtZEff=  -0.0000000  -0.0000000  -0.0000000  -0.0000000  -0.0000000  -0.0000000  -0.0000000  -0.0000000  -0.0000000  -0.0000000
 NQMom=    0.0000000   0.0000000   0.0000000   0.0000000   0.0000000   0.0000000   0.0000000   0.0000000   0.0000000   0.0000000
 NMagM=    2.7928460   2.7928460   2.7928460   2.7928460   2.7928460   2.7928460   2.7928460   2.7928460   2.7928460   2.7928460
 AtZNuc=   1.0000000   1.0000000   1.0000000   1.0000000   1.0000000   1.0000000   1.0000000   1.0000000   1.0000000   1.0000000

  Atom        31
 IAtWgt=           1
 AtmWgt=   1.0078250
 NucSpn=           1
 AtZEff=  -0.0000000
 NQMom=    0.0000000
 NMagM=    2.7928460
 AtZNuc=   1.0000000
 Leave Link  101 at Tue Feb 23 00:11:08 2021, MaxMem=   104857600 cpu:               2.9 elap:               0.1
 (Enter /sw/arch/RedHatEnterpriseServer7/EB_production/2019/software/Gaussian/g16.c01/l103.exe)

 GradGradGradGradGradGradGradGradGradGradGradGradGradGradGradGradGradGrad
 Berny optimization.
 Initialization pass.
                           ----------------------------
                           !    Initial Parameters    !
                           ! (Angstroms and Degrees)  !
 --------------------------                            --------------------------
 ! Name  Definition              Value          Derivative Info.                !
 --------------------------------------------------------------------------------
 ! R1    R(1,2)                  1.5158         estimate D2E/DX2                !
 ! R2    R(1,14)                 1.0944         estimate D2E/DX2                !
 ! R3    R(1,15)                 1.0931         estimate D2E/DX2                !
 ! R4    R(1,16)                 1.0927         estimate D2E/DX2                !
 ! R5    R(2,3)                  1.5149         estimate D2E/DX2                !
 ! R6    R(2,4)                  1.5246         estimate D2E/DX2                !
 ! R7    R(2,7)                  1.5261         estimate D2E/DX2                !
 ! R8    R(3,17)                 1.0926         estimate D2E/DX2                !
 ! R9    R(3,18)                 1.094          estimate D2E/DX2                !
 ! R10   R(3,19)                 1.0937         estimate D2E/DX2                !
 ! R11   R(4,5)                  1.5544         estimate D2E/DX2                !
 ! R12   R(4,20)                 1.0958         estimate D2E/DX2                !
 ! R13   R(4,21)                 1.0931         estimate D2E/DX2                !
 ! R14   R(5,6)                  1.4251         estimate D2E/DX2                !
 ! R15   R(5,22)                 1.0876         estimate D2E/DX2                !
 ! R16   R(5,23)                 1.0912         estimate D2E/DX2                !
 ! R17   R(6,24)                 0.9794         estimate D2E/DX2                !
 ! R18   R(7,8)                  1.4988         estimate D2E/DX2                !
 ! R19   R(7,25)                 1.0936         estimate D2E/DX2                !
 ! R20   R(7,26)                 1.0961         estimate D2E/DX2                !
 ! R21   R(8,9)                  1.4166         estimate D2E/DX2                !
 ! R22   R(8,13)                 1.417          estimate D2E/DX2                !
 ! R23   R(9,10)                 1.407          estimate D2E/DX2                !
 ! R24   R(9,27)                 1.0246         estimate D2E/DX2                !
 ! R25   R(10,11)                1.4054         estimate D2E/DX2                !
 ! R26   R(10,28)                1.0206         estimate D2E/DX2                !
 ! R27   R(11,12)                1.405          estimate D2E/DX2                !
 ! R28   R(11,29)                1.0217         estimate D2E/DX2                !
 ! R29   R(12,13)                1.4062         estimate D2E/DX2                !
 ! R30   R(12,30)                1.0229         estimate D2E/DX2                !
 ! R31   R(13,31)                1.0201         estimate D2E/DX2                !
 ! A1    A(2,1,14)             111.7            estimate D2E/DX2                !
 ! A2    A(2,1,15)             111.578          estimate D2E/DX2                !
 ! A3    A(2,1,16)             111.62           estimate D2E/DX2                !
 ! A4    A(14,1,15)            107.2366         estimate D2E/DX2                !
 ! A5    A(14,1,16)            106.8987         estimate D2E/DX2                !
 ! A6    A(15,1,16)            107.5423         estimate D2E/DX2                !
 ! A7    A(1,2,3)              107.1427         estimate D2E/DX2                !
 ! A8    A(1,2,4)              108.1092         estimate D2E/DX2                !
 ! A9    A(1,2,7)              109.7138         estimate D2E/DX2                !
 ! A10   A(3,2,4)              110.0386         estimate D2E/DX2                !
 ! A11   A(3,2,7)              108.3884         estimate D2E/DX2                !
 ! A12   A(4,2,7)              113.2733         estimate D2E/DX2                !
 ! A13   A(2,3,17)             111.6476         estimate D2E/DX2                !
 ! A14   A(2,3,18)             111.5922         estimate D2E/DX2                !
 ! A15   A(2,3,19)             111.7091         estimate D2E/DX2                !
 ! A16   A(17,3,18)            106.9317         estimate D2E/DX2                !
 ! A17   A(17,3,19)            107.4226         estimate D2E/DX2                !
 ! A18   A(18,3,19)            107.2678         estimate D2E/DX2                !
 ! A19   A(2,4,5)              118.6071         estimate D2E/DX2                !
 ! A20   A(2,4,20)             109.8955         estimate D2E/DX2                !
 ! A21   A(2,4,21)             109.411          estimate D2E/DX2                !
 ! A22   A(5,4,20)             105.3828         estimate D2E/DX2                !
 ! A23   A(5,4,21)             107.0491         estimate D2E/DX2                !
 ! A24   A(20,4,21)            105.7065         estimate D2E/DX2                !
 ! A25   A(4,5,6)              109.9604         estimate D2E/DX2                !
 ! A26   A(4,5,22)             111.5314         estimate D2E/DX2                !
 ! A27   A(4,5,23)             110.3697         estimate D2E/DX2                !
 ! A28   A(6,5,22)             108.0467         estimate D2E/DX2                !
 ! A29   A(6,5,23)             108.0186         estimate D2E/DX2                !
 ! A30   A(22,5,23)            108.8154         estimate D2E/DX2                !
 ! A31   A(5,6,24)             105.3322         estimate D2E/DX2                !
 ! A32   A(2,7,8)              117.7966         estimate D2E/DX2                !
 ! A33   A(2,7,25)             109.8973         estimate D2E/DX2                !
 ! A34   A(2,7,26)             109.2375         estimate D2E/DX2                !
 ! A35   A(8,7,25)             107.8345         estimate D2E/DX2                !
 ! A36   A(8,7,26)             107.3054         estimate D2E/DX2                !
 ! A37   A(25,7,26)            103.8472         estimate D2E/DX2                !
 ! A38   A(7,8,9)              120.7941         estimate D2E/DX2                !
 ! A39   A(7,8,13)             120.9986         estimate D2E/DX2                !
 ! A40   A(9,8,13)             118.2006         estimate D2E/DX2                !
 ! A41   A(8,9,10)             120.978          estimate D2E/DX2                !
 ! A42   A(8,9,27)             120.3947         estimate D2E/DX2                !
 ! A43   A(10,9,27)            118.6272         estimate D2E/DX2                !
 ! A44   A(9,10,11)            119.9078         estimate D2E/DX2                !
 ! A45   A(9,10,28)            120.2097         estimate D2E/DX2                !
 ! A46   A(11,10,28)           119.8825         estimate D2E/DX2                !
 ! A47   A(10,11,12)           119.9856         estimate D2E/DX2                !
 ! A48   A(10,11,29)           119.9775         estimate D2E/DX2                !
 ! A49   A(12,11,29)           120.0368         estimate D2E/DX2                !
 ! A50   A(11,12,13)           120.0117         estimate D2E/DX2                !
 ! A51   A(11,12,30)           120.0405         estimate D2E/DX2                !
 ! A52   A(13,12,30)           119.9477         estimate D2E/DX2                !
 ! A53   A(8,13,12)            120.9107         estimate D2E/DX2                !
 ! A54   A(8,13,31)            120.6624         estimate D2E/DX2                !
 ! A55   A(12,13,31)           118.4269         estimate D2E/DX2                !
 ! D1    D(14,1,2,3)           -55.5489         estimate D2E/DX2                !
 ! D2    D(14,1,2,4)            63.0154         estimate D2E/DX2                !
 ! D3    D(14,1,2,7)          -173.0136         estimate D2E/DX2                !
 ! D4    D(15,1,2,3)            64.4733         estimate D2E/DX2                !
 ! D5    D(15,1,2,4)          -176.9625         estimate D2E/DX2                !
 ! D6    D(15,1,2,7)           -52.9915         estimate D2E/DX2                !
 ! D7    D(16,1,2,3)          -175.169          estimate D2E/DX2                !
 ! D8    D(16,1,2,4)           -56.6047         estimate D2E/DX2                !
 ! D9    D(16,1,2,7)            67.3663         estimate D2E/DX2                !
 ! D10   D(1,2,3,17)          -175.3357         estimate D2E/DX2                !
 ! D11   D(1,2,3,18)           -55.7283         estimate D2E/DX2                !
 ! D12   D(1,2,3,19)            64.3499         estimate D2E/DX2                !
 ! D13   D(4,2,3,17)            67.3582         estimate D2E/DX2                !
 ! D14   D(4,2,3,18)          -173.0344         estimate D2E/DX2                !
 ! D15   D(4,2,3,19)           -52.9562         estimate D2E/DX2                !
 ! D16   D(7,2,3,17)           -57.0064         estimate D2E/DX2                !
 ! D17   D(7,2,3,18)            62.601          estimate D2E/DX2                !
 ! D18   D(7,2,3,19)          -177.3209         estimate D2E/DX2                !
 ! D19   D(1,2,4,5)           -172.8935         estimate D2E/DX2                !
 ! D20   D(1,2,4,20)           -51.648          estimate D2E/DX2                !
 ! D21   D(1,2,4,21)            63.9955         estimate D2E/DX2                !
 ! D22   D(3,2,4,5)            -56.19           estimate D2E/DX2                !
 ! D23   D(3,2,4,20)            65.0556         estimate D2E/DX2                !
 ! D24   D(3,2,4,21)          -179.301          estimate D2E/DX2                !
 ! D25   D(7,2,4,5)             65.3037         estimate D2E/DX2                !
 ! D26   D(7,2,4,20)          -173.4508         estimate D2E/DX2                !
 ! D27   D(7,2,4,21)           -57.8073         estimate D2E/DX2                !
 ! D28   D(1,2,7,8)            -60.3446         estimate D2E/DX2                !
 ! D29   D(1,2,7,25)           175.6686         estimate D2E/DX2                !
 ! D30   D(1,2,7,26)            62.3472         estimate D2E/DX2                !
 ! D31   D(3,2,7,8)           -177.0284         estimate D2E/DX2                !
 ! D32   D(3,2,7,25)            58.9847         estimate D2E/DX2                !
 ! D33   D(3,2,7,26)           -54.3366         estimate D2E/DX2                !
 ! D34   D(4,2,7,8)             60.5559         estimate D2E/DX2                !
 ! D35   D(4,2,7,25)           -63.431          estimate D2E/DX2                !
 ! D36   D(4,2,7,26)          -176.7523         estimate D2E/DX2                !
 ! D37   D(2,4,5,6)           -169.5882         estimate D2E/DX2                !
 ! D38   D(2,4,5,22)           -49.7462         estimate D2E/DX2                !
 ! D39   D(2,4,5,23)            71.3405         estimate D2E/DX2                !
 ! D40   D(20,4,5,6)            66.9024         estimate D2E/DX2                !
 ! D41   D(20,4,5,22)         -173.2556         estimate D2E/DX2                !
 ! D42   D(20,4,5,23)          -52.1689         estimate D2E/DX2                !
 ! D43   D(21,4,5,6)           -45.3103         estimate D2E/DX2                !
 ! D44   D(21,4,5,22)           74.5316         estimate D2E/DX2                !
 ! D45   D(21,4,5,23)         -164.3816         estimate D2E/DX2                !
 ! D46   D(4,5,6,24)           179.5926         estimate D2E/DX2                !
 ! D47   D(22,5,6,24)           57.6545         estimate D2E/DX2                !
 ! D48   D(23,5,6,24)          -59.906          estimate D2E/DX2                !
 ! D49   D(2,7,8,9)             92.1905         estimate D2E/DX2                !
 ! D50   D(2,7,8,13)           -88.7653         estimate D2E/DX2                !
 ! D51   D(25,7,8,9)          -142.7969         estimate D2E/DX2                !
 ! D52   D(25,7,8,13)           36.2472         estimate D2E/DX2                !
 ! D53   D(26,7,8,9)           -31.4769         estimate D2E/DX2                !
 ! D54   D(26,7,8,13)          147.5672         estimate D2E/DX2                !
 ! D55   D(7,8,9,10)           179.5975         estimate D2E/DX2                !
 ! D56   D(7,8,9,27)            -0.5006         estimate D2E/DX2                !
 ! D57   D(13,8,9,10)            0.5272         estimate D2E/DX2                !
 ! D58   D(13,8,9,27)         -179.571          estimate D2E/DX2                !
 ! D59   D(7,8,13,12)         -179.9551         estimate D2E/DX2                !
 ! D60   D(7,8,13,31)            0.0847         estimate D2E/DX2                !
 ! D61   D(9,8,13,12)           -0.8868         estimate D2E/DX2                !
 ! D62   D(9,8,13,31)          179.153          estimate D2E/DX2                !
 ! D63   D(8,9,10,11)           -0.0977         estimate D2E/DX2                !
 ! D64   D(8,9,10,28)          179.8716         estimate D2E/DX2                !
 ! D65   D(27,9,10,11)         179.9988         estimate D2E/DX2                !
 ! D66   D(27,9,10,28)          -0.0319         estimate D2E/DX2                !
 ! D67   D(9,10,11,12)           0.0107         estimate D2E/DX2                !
 ! D68   D(9,10,11,29)         179.883          estimate D2E/DX2                !
 ! D69   D(28,10,11,12)       -179.9587         estimate D2E/DX2                !
 ! D70   D(28,10,11,29)         -0.0864         estimate D2E/DX2                !
 ! D71   D(10,11,12,13)         -0.367          estimate D2E/DX2                !
 ! D72   D(10,11,12,30)        179.6976         estimate D2E/DX2                !
 ! D73   D(29,11,12,13)        179.7608         estimate D2E/DX2                !
 ! D74   D(29,11,12,30)         -0.1746         estimate D2E/DX2                !
 ! D75   D(11,12,13,8)           0.8174         estimate D2E/DX2                !
 ! D76   D(11,12,13,31)       -179.2215         estimate D2E/DX2                !
 ! D77   D(30,12,13,8)        -179.2471         estimate D2E/DX2                !
 ! D78   D(30,12,13,31)          0.714          estimate D2E/DX2                !
 --------------------------------------------------------------------------------
 Trust Radius=3.00D-01 FncErr=1.00D-07 GrdErr=1.00D-06 EigMax=2.50D+02 EigMin=1.00D-04
 Number of steps in this run=    174 maximum allowed number of steps=    186.
 GradGradGradGradGradGradGradGradGradGradGradGradGradGradGradGradGradGrad

 Leave Link  103 at Tue Feb 23 00:11:08 2021, MaxMem=   104857600 cpu:               0.7 elap:               0.1
 (Enter /sw/arch/RedHatEnterpriseServer7/EB_production/2019/software/Gaussian/g16.c01/l202.exe)
                          Input orientation:                          
 ---------------------------------------------------------------------
 Center     Atomic      Atomic             Coordinates (Angstroms)
 Number     Number       Type             X           Y           Z
 ---------------------------------------------------------------------
      1          6           0       -2.626100   -0.863530    2.249210
      2          7           0       -1.646990   -1.215780    1.147030
      3          6           0       -2.412020   -1.174410   -0.159880
      4          6           0       -0.543210   -0.164120    1.139750
      5          6           0        0.506010   -0.194350   -0.006700
      6          8           0        1.576150    0.698950    0.289530
      7          6           0       -1.126210   -2.635090    1.355300
      8          6           0       -0.391130   -2.930190    2.627660
      9          6           0       -1.077840   -3.423250    3.764300
     10          6           0       -0.390310   -3.709520    4.958040
     11          6           0        0.998590   -3.508270    5.032280
     12          6           0        1.698290   -3.021630    3.915330
     13          6           0        1.010350   -2.743290    2.720950
     14          1           0       -3.112730    0.099340    2.065660
     15          1           0       -3.416020   -1.613560    2.340030
     16          1           0       -2.129830   -0.788690    3.219820
     17          1           0       -1.792740   -1.497970   -0.999830
     18          1           0       -3.285590   -1.832520   -0.136010
     19          1           0       -2.770960   -0.166510   -0.386810
     20          1           0       -0.983750    0.838620    1.104250
     21          1           0        0.009680   -0.211250    2.081510
     22          1           0        0.924520   -1.189460   -0.138620
     23          1           0        0.051230    0.123560   -0.946250
     24          1           0        2.194600    0.621750   -0.465980
     25          1           0       -0.479380   -2.920410    0.520880
     26          1           0       -1.963230   -3.339940    1.291310
     27          1           0       -2.090250   -3.577210    3.731900
     28          1           0       -0.897130   -4.062500    5.770590
     29          1           0        1.498610   -3.714090    5.899110
     30          1           0        2.708460   -2.870460    3.969890
     31          1           0        1.544110   -2.402340    1.921240
 ---------------------------------------------------------------------
                    Distance matrix (angstroms):
                    1          2          3          4          5
     1  C    0.000000
     2  N    1.515763   0.000000
     3  C    2.438481   1.514924   0.000000
     4  C    2.461403   1.524589   2.490417   0.000000
     5  C    3.917530   2.647607   3.082025   1.554389   0.000000
     6  O    4.892913   3.845794   4.429102   2.441199   1.425109
     7  C    2.487402   1.526116   2.466306   2.547949   3.236726
     8  C    3.067474   2.590106   3.864860   3.144543   3.902503
     9  C    3.353323   3.470873   4.715560   4.218533   5.211028
    10  C    4.520639   4.724593   6.058647   5.212732   6.148858
    11  C    5.280010   5.229701   6.636090   5.358384   6.051117
    12  C    5.112113   4.702710   6.075706   4.570944   4.979695
    13  C    4.120656   3.445572   4.740589   3.400862   3.767165
    14  H    1.094357   2.172974   2.658282   2.743930   4.180456
    15  H    1.093054   2.170471   2.729546   3.434325   4.785772
    16  H    1.092689   2.170714   3.413324   2.689636   4.208482
    17  H    3.413688   2.170226   1.092573   2.813944   2.823116
    18  H    2.657657   2.170615   1.093985   3.454239   4.132379
    19  H    2.730462   2.171852   1.093708   2.700604   3.299059
    20  H    2.627844   2.159231   2.773134   1.095821   2.126175
    21  H    2.720465   2.151020   3.437461   1.093078   2.146451
    22  H    4.291254   2.875109   3.336642   2.199951   1.087565
    23  H    4.284088   3.009918   2.893217   2.188039   1.091167
    24  H    5.728653   4.553694   4.953871   3.269796   1.930879
    25  H    3.438937   2.158967   2.692034   2.825634   2.946309
    26  H    2.736709   2.152413   2.645163   3.482134   4.204368
    27  H    3.138402   3.529077   4.585077   4.556507   5.671106
    28  H    5.061903   5.481187   6.768045   6.063605   7.092846
    29  H    6.201669   6.222429   7.645545   6.278760   6.946396
    30  H    5.953658   5.447609   6.793445   5.089924   5.274999
    31  H    4.457146   3.491482   4.635713   3.158680   3.109634
                    6          7          8          9         10
     6  O    0.000000
     7  C    4.422040   0.000000
     8  C    4.744228   1.498775   0.000000
     9  C    6.009178   2.535117   1.416555   0.000000
    10  C    6.715397   3.830886   2.457240   1.407005   0.000000
    11  C    6.366157   4.335597   2.836846   2.434453   1.405367
    12  C    5.196543   3.831575   2.456040   2.809094   2.433657
    13  C    4.252170   2.538030   1.416962   2.431350   2.810698
    14  H    5.049729   3.453691   4.111083   4.408491   5.503167
    15  H    5.871458   2.693779   3.311526   3.281861   4.516851
    16  H    4.953177   2.809427   2.821303   2.888607   3.818192
    17  H    4.223544   2.698878   4.144207   5.187940   6.507993
    18  H    5.497812   2.744275   4.149777   4.755733   6.152652
    19  H    4.483729   3.440064   4.731654   5.541184   6.840163
    20  H    2.690049   3.485682   4.108029   5.024764   5.990780
    21  H    2.548232   2.773559   2.802064   3.785687   4.546681
    22  H    2.043043   2.920126   3.523263   4.922606   5.835702
    23  H    2.045387   3.780694   4.721642   6.003661   7.053233
    24  H    0.979406   4.995182   5.373350   6.705681   7.406865
    25  H    4.168752   1.093642   2.108650   3.336282   4.507662
    26  H    5.462912   1.096134   2.103622   2.628029   4.006941
    27  H    6.601359   2.732250   2.127202   1.024562   2.100172
    28  H    7.670107   4.645940   3.378782   2.113409   1.020637
    29  H    7.137809   5.357250   3.858497   3.358585   2.110368
    30  H    5.250511   4.647168   3.378255   3.831959   3.358994
    31  H    3.504498   2.739538   2.126690   3.363592   3.830516
                   11         12         13         14         15
    11  C    0.000000
    12  C    1.404983   0.000000
    13  C    2.434662   1.406157   0.000000
    14  H    6.222430   6.025583   5.050717   0.000000
    15  H    5.506988   5.533570   4.584118   1.761048   0.000000
    16  H    4.524173   4.486007   3.732300   1.756922   1.763158
    17  H    6.944003   6.218330   4.822068   3.700135   3.715247
    18  H    6.919072   6.531952   5.238972   2.934163   2.489122
    19  H    7.398879   6.828932   5.531390   2.490400   3.153682
    20  H    6.185026   5.476955   4.406839   2.450184   3.668280
    21  H    4.533798   3.756665   2.796686   3.137859   3.710623
    22  H    5.667501   4.515537   3.255594   4.776949   5.016359
    23  H    7.059072   6.019966   4.752588   4.368390   5.083212
    24  H    6.979854   5.719827   4.783562   5.903377   6.659531
    25  H    4.783587   4.034202   2.662888   4.294155   3.693375
    26  H    4.774471   4.515920   3.352915   3.708047   2.488132
    27  H    3.352115   3.833452   3.366179   4.163993   2.747888
    28  H    2.108560   3.355831   3.831331   5.996357   4.910281
    29  H    1.021654   2.110629   3.358802   7.106479   6.421282
    30  H    2.111665   1.022875   2.111777   6.806766   6.461075
    31  H    3.346527   2.093726   1.020139   5.288234   5.039886
                   16         17         18         19         20
    16  H    0.000000
    17  H    4.292104   0.000000
    18  H    3.699589   1.756903   0.000000
    19  H    3.715634   1.762241   1.761628   0.000000
    20  H    2.904699   3.246732   3.737874   2.535284   0.000000
    21  H    2.491323   3.794604   4.290072   3.718409   1.744754
    22  H    4.557279   2.867118   4.258939   3.842473   3.049480
    23  H    4.790132   2.456106   3.951848   2.891690   2.405628
    24  H    5.854499   4.547207   6.013718   5.028360   3.551699
    25  H    3.814773   2.461871   3.080556   3.695836   3.837319
    26  H    3.202465   2.944697   2.461340   3.679561   4.295898
    27  H    2.835425   5.176970   4.408345   5.390734   5.256276
    28  H    4.329412   7.295034   6.750220   7.523533   6.767807
    29  H    5.376071   7.958615   7.927897   8.386140   7.062575
    30  H    5.320284   6.844169   7.339235   7.504414   5.966706
    31  H    4.217584   4.526047   5.280433   5.380136   4.190629
                   21         22         23         24         25
    21  H    0.000000
    22  H    2.592837   0.000000
    23  H    3.046499   1.771701   0.000000
    24  H    3.457957   2.236236   2.252307   0.000000
    25  H    3.164537   2.324234   3.420493   4.546533   0.000000
    26  H    3.782260   3.874063   4.589178   6.005881   1.723769
    27  H    4.296880   5.456291   6.337722   7.322117   3.651977
    28  H    5.409597   6.818470   7.971099   8.390220   5.388723
    29  H    5.390814   6.569438   7.980064   7.732935   5.785130
    30  H    4.233295   4.784146   6.339831   5.668909   4.696859
    31  H    2.679746   2.469411   4.102604   3.907311   2.514740
                   26         27         28         29         30
    26  H    0.000000
    27  H    2.455384   0.000000
    28  H    4.660752   2.411493   0.000000
    29  H    5.775478   4.194693   2.424351   0.000000
    30  H    5.405543   4.856311   4.202828   2.428444   0.000000
    31  H    3.684744   4.226983   4.851111   4.188819   2.402460
                   31
    31  H    0.000000
 Stoichiometry    C11H18NO(1+)
 Framework group  C1[X(C11H18NO)]
 Deg. of freedom    87
 Full point group                 C1      NOp   1
 Largest Abelian subgroup         C1      NOp   1
 Largest concise Abelian subgroup C1      NOp   1
                         Standard orientation:                         
 ---------------------------------------------------------------------
 Center     Atomic      Atomic             Coordinates (Angstroms)
 Number     Number       Type             X           Y           Z
 ---------------------------------------------------------------------
      1          6           0       -0.853806   -1.956736    1.146876
      2          7           0       -1.317308   -1.026238    0.043755
      3          6           0       -2.506649   -1.684289   -0.625149
      4          6           0       -1.740367    0.291969    0.682287
      5          6           0       -2.417102    1.368558   -0.211643
      6          8           0       -2.515404    2.599642    0.499487
      7          6           0       -0.209537   -0.865635   -0.993588
      8          6           0        1.098472   -0.294184   -0.536552
      9          6           0        2.148495   -1.141153   -0.104437
     10          6           0        3.380885   -0.609284    0.317456
     11          6           0        3.582709    0.781503    0.311481
     12          6           0        2.554339    1.638448   -0.115225
     13          6           0        1.326101    1.104357   -0.543543
     14          1           0       -1.663621   -2.192662    1.844126
     15          1           0       -0.485819   -2.904393    0.745257
     16          1           0       -0.047126   -1.513032    1.735401
     17          1           0       -2.851118   -1.111230   -1.489244
     18          1           0       -2.261589   -2.687740   -0.985476
     19          1           0       -3.352884   -1.783263    0.060626
     20          1           0       -2.449730    0.101664    1.495559
     21          1           0       -0.872694    0.763661    1.150764
     22          1           0       -1.847050    1.548837   -1.120124
     23          1           0       -3.425881    1.055456   -0.485465
     24          1           0       -2.941084    3.224852   -0.122721
     25          1           0       -0.567261   -0.257188   -1.828979
     26          1           0        0.001817   -1.839560   -1.449998
     27          1           0        2.022648   -2.157882   -0.092122
     28          1           0        4.128794   -1.230316    0.628342
     29          1           0        4.476527    1.168949    0.619298
     30          1           0        2.698708    2.651083   -0.115536
     31          1           0        0.600500    1.747978   -0.859673
 ---------------------------------------------------------------------
 Rotational constants (GHZ):           1.1280229           0.5268407           0.4015582
 Leave Link  202 at Tue Feb 23 00:11:08 2021, MaxMem=   104857600 cpu:               0.5 elap:               0.0
 (Enter /sw/arch/RedHatEnterpriseServer7/EB_production/2019/software/Gaussian/g16.c01/l301.exe)
 Standard basis: TZVP (5D, 7F)
 Ernie: Thresh=  0.10000D-02 Tol=  0.10000D-05 Strict=F.
 There are   368 symmetry adapted cartesian basis functions of A   symmetry.
 There are   355 symmetry adapted basis functions of A   symmetry.
   355 basis functions,   599 primitive gaussians,   368 cartesian basis functions
    49 alpha electrons       49 beta electrons
       nuclear repulsion energy       824.6489099942 Hartrees.
 IExCor=  404 DFT=T Ex=B Corr=P86 ExCW=0 ScaHFX=  0.000000
 ScaDFX=  1.000000  1.000000  1.000000  1.000000 ScalE2=  1.000000  1.000000
 IRadAn=      5 IRanWt=     -1 IRanGd=            0 ICorTp=0 IEmpDi=131
 NAtoms=   31 NActive=   31 NUniq=   31 SFac= 1.00D+00 NAtFMM=   60 NAOKFM=F Big=F
 Integral buffers will be    131072 words long.
 Raffenetti 2 integral format.
 Two-electron integral symmetry is turned on.
 R6Disp:  Grimme-D3 Dispersion energy=       -0.0363707272 Hartrees.
 Nuclear repulsion after empirical dispersion term =      824.6125392670 Hartrees.
 ------------------------------------------------------------------------------
 Polarizable Continuum Model (PCM)
 =================================
 Model                : PCM.
 Atomic radii         : UFF (Universal Force Field).
 Polarization charges : Total charges.
 Charge compensation  : None.
 Solution method      : On-the-fly selection.
 Cavity type          : Scaled VdW (van der Waals Surface) (Alpha=1.100).
 Cavity algorithm     : GePol (No added spheres)
                        Default sphere list used, NSphG=   31.
                        Lebedev-Laikov grids with approx.  5.0 points / Ang**2.
                        Smoothing algorithm: York/Karplus (Gamma=1.0000).
                        Polarization charges: spherical gaussians, with
                                              point-specific exponents (IZeta= 3).
                        Self-potential: point-specific (ISelfS= 7).
                        Self-field    : sphere-specific E.n sum rule (ISelfD= 2).
 1st derivatives      : Analytical E(r).r(x)/FMM algorithm (CHGder, D1EAlg=3).
                        Cavity 1st derivative terms included.
 Solvent              : Water, Eps=  78.355300 Eps(inf)=   1.777849
 ------------------------------------------------------------------------------
 GePol: Number of generator spheres                  =      31
 GePol: Total number of spheres                      =      31
 GePol: Number of exposed spheres                    =      30 ( 96.77%)
 GePol: Number of points                             =    2070
 GePol: Average weight of points                     =       0.13
 GePol: Minimum weight of points                     =   0.11D-10
 GePol: Maximum weight of points                     =    0.20577
 GePol: Number of points with low weight             =     151
 GePol: Fraction of low-weight points (<1% of avg)   =       7.29%
 GePol: Cavity surface area                          =    269.374 Ang**2
 GePol: Cavity volume                                =    290.843 Ang**3
 Leave Link  301 at Tue Feb 23 00:11:09 2021, MaxMem=   104857600 cpu:               1.9 elap:               0.1
 (Enter /sw/arch/RedHatEnterpriseServer7/EB_production/2019/software/Gaussian/g16.c01/l302.exe)
 NPDir=0 NMtPBC=     1 NCelOv=     1 NCel=       1 NClECP=     1 NCelD=      1
         NCelK=      1 NCelE2=     1 NClLst=     1 CellRange=     0.0.
 One-electron integrals computed using PRISM.
 One-electron integral symmetry used in STVInt
 PrsmSu:  requested number of processors reduced to:  27 ShMem   1 Linda.
 NBasis=   355 RedAO= T EigKep=  8.86D-06  NBF=   355
 NBsUse=   355 1.00D-06 EigRej= -1.00D+00 NBFU=   355
 Precomputing XC quadrature grid using
 IXCGrd= 4 IRadAn=           5 IRanWt=          -1 IRanGd=           0 AccXCQ= 0.00D+00.
 Generated NRdTot=       0 NPtTot=           0 NUsed=           0 NTot=          32
 NSgBfM=   365   365   365   365   365 MxSgAt=    31 MxSgA2=    31.
 Leave Link  302 at Tue Feb 23 00:11:09 2021, MaxMem=   104857600 cpu:              15.1 elap:               0.6
 (Enter /sw/arch/RedHatEnterpriseServer7/EB_production/2019/software/Gaussian/g16.c01/l303.exe)
 DipDrv:  MaxL=1.
 Leave Link  303 at Tue Feb 23 00:11:10 2021, MaxMem=   104857600 cpu:               1.5 elap:               0.1
 (Enter /sw/arch/RedHatEnterpriseServer7/EB_production/2019/software/Gaussian/g16.c01/l401.exe)
 ExpMin= 9.52D-02 ExpMax= 2.70D+04 ExpMxC= 9.22D+02 IAcc=3 IRadAn=         5 AccDes= 0.00D+00
 Harris functional with IExCor=  404 and IRadAn=       5 diagonalized for initial guess.
 HarFok:  IExCor=  404 AccDes= 0.00D+00 IRadAn=         5 IDoV= 1 UseB2=F ITyADJ=14
 ICtDFT=  3500011 ScaDFX=  1.000000  1.000000  1.000000  1.000000
 FoFCou: FMM=F IPFlag=           0 FMFlag=      100000 FMFlg1=           0
         NFxFlg=           0 DoJE=T BraDBF=F KetDBF=T FulRan=T
         wScrn=  0.000000 ICntrl=       500 IOpCl=  0 I1Cent=   200000004 NGrid=           0
         NMat0=    1 NMatS0=      1 NMatT0=    0 NMatD0=    1 NMtDS0=    0 NMtDT0=    0
 Petite list used in FoFCou.
 Harris En= -560.204877959753    
 JPrj=0 DoOrth=F DoCkMO=F.
 Leave Link  401 at Tue Feb 23 00:11:10 2021, MaxMem=   104857600 cpu:              22.1 elap:               0.7
 (Enter /sw/arch/RedHatEnterpriseServer7/EB_production/2019/software/Gaussian/g16.c01/l502.exe)
 Integral symmetry usage will be decided dynamically.
 Closed shell SCF:
 Using DIIS extrapolation, IDIIS=  1040.
 NGot=   104857600 LenX=   104570384 LenY=   104434519
 Requested convergence on RMS density matrix=1.00D-08 within 128 cycles.
 Requested convergence on MAX density matrix=1.00D-06.
 Requested convergence on             energy=1.00D-06.
 No special actions if energy rises.
 Fock matrices will be formed incrementally for  20 cycles.

 Cycle   1  Pass 1  IDiag  1:
 FoFJK:  IHMeth= 1 ICntrl=     500 DoSepK=F KAlg= 0 I1Cent=           0 FoldK=F
 IRaf= 890000000 NMat=       1 IRICut=       1 DoRegI=T DoRafI=F ISym2E= 0 IDoP0=0 IntGTp=1.
 FoFCou: FMM=F IPFlag=           0 FMFlag=      100000 FMFlg1=           0
         NFxFlg=           0 DoJE=T BraDBF=F KetDBF=F FulRan=T
         wScrn=  0.000000 ICntrl=       500 IOpCl=  0 I1Cent=           0 NGrid=           0
         NMat0=    1 NMatS0=      1 NMatT0=    0 NMatD0=    1 NMtDS0=    0 NMtDT0=    0
 Symmetry not used in FoFCou.
 Inv3:  Mode=1 IEnd=    12854700.
 Iteration    1 A*A^-1 deviation from unit magnitude is 2.89D-15 for   1446.
 Iteration    1 A*A^-1 deviation from orthogonality  is 2.55D-15 for    475    237.
 Iteration    1 A^-1*A deviation from unit magnitude is 3.11D-15 for   1449.
 Iteration    1 A^-1*A deviation from orthogonality  is 3.36D-15 for   1479    373.
 E= -559.695550951298    
 DIIS: error= 2.58D-02 at cycle   1 NSaved=   1.
 NSaved= 1 IEnMin= 1 EnMin= -559.695550951298     IErMin= 1 ErrMin= 2.58D-02
 ErrMax= 2.58D-02  0.00D+00 EMaxC= 1.00D-01 BMatC= 3.18D-01 BMatP= 3.18D-01
 IDIUse=3 WtCom= 7.42D-01 WtEn= 2.58D-01
 Coeff-Com:  0.100D+01
 Coeff-En:   0.100D+01
 Coeff:      0.100D+01
 Gap=     0.175 Goal=   None    Shift=    0.000
 GapD=    0.175 DampG=1.000 DampE=0.500 DampFc=0.5000 IDamp=-1.
 Damping current iteration by 5.00D-01
 RMSDP=6.91D-03 MaxDP=5.40D-01              OVMax= 2.41D-01

 Cycle   2  Pass 1  IDiag  1:
 RMSU=  3.44D-03    CP:  1.03D+00
 E= -559.768705686096     Delta-E=       -0.073154734798 Rises=F Damp=T
 DIIS: error= 1.29D-02 at cycle   2 NSaved=   2.
 NSaved= 2 IEnMin= 2 EnMin= -559.768705686096     IErMin= 2 ErrMin= 1.29D-02
 ErrMax= 1.29D-02  0.00D+00 EMaxC= 1.00D-01 BMatC= 5.89D-02 BMatP= 3.18D-01
 IDIUse=3 WtCom= 8.71D-01 WtEn= 1.29D-01
 Coeff-Com:  0.248D+00 0.752D+00
 Coeff-En:   0.370D+00 0.630D+00
 Coeff:      0.264D+00 0.736D+00
 Gap=     0.218 Goal=   None    Shift=    0.000
 RMSDP=2.34D-03 MaxDP=1.96D-01 DE=-7.32D-02 OVMax= 1.97D-01

 Cycle   3  Pass 1  IDiag  1:
 RMSU=  1.23D-03    CP:  9.85D-01  4.35D-01
 E= -559.965948386783     Delta-E=       -0.197242700687 Rises=F Damp=F
 DIIS: error= 7.56D-03 at cycle   3 NSaved=   3.
 NSaved= 3 IEnMin= 3 EnMin= -559.965948386783     IErMin= 3 ErrMin= 7.56D-03
 ErrMax= 7.56D-03  0.00D+00 EMaxC= 1.00D-01 BMatC= 2.80D-02 BMatP= 5.89D-02
 IDIUse=3 WtCom= 9.24D-01 WtEn= 7.56D-02
 Coeff-Com:  0.831D-01 0.405D+00 0.511D+00
 Coeff-En:   0.000D+00 0.000D+00 0.100D+01
 Coeff:      0.768D-01 0.375D+00 0.548D+00
 Gap=     0.174 Goal=   None    Shift=    0.000
 RMSDP=8.19D-04 MaxDP=3.77D-02 DE=-1.97D-01 OVMax= 5.63D-02

 Cycle   4  Pass 1  IDiag  1:
 RMSU=  5.15D-04    CP:  1.01D+00  5.83D-01  7.38D-01
 E= -559.984284438004     Delta-E=       -0.018336051220 Rises=F Damp=F
 DIIS: error= 4.14D-03 at cycle   4 NSaved=   4.
 NSaved= 4 IEnMin= 4 EnMin= -559.984284438004     IErMin= 4 ErrMin= 4.14D-03
 ErrMax= 4.14D-03  0.00D+00 EMaxC= 1.00D-01 BMatC= 6.37D-03 BMatP= 2.80D-02
 IDIUse=3 WtCom= 9.59D-01 WtEn= 4.14D-02
 Coeff-Com:  0.209D-01 0.115D+00 0.339D+00 0.525D+00
 Coeff-En:   0.000D+00 0.000D+00 0.238D+00 0.762D+00
 Coeff:      0.200D-01 0.110D+00 0.335D+00 0.535D+00
 Gap=     0.173 Goal=   None    Shift=    0.000
 RMSDP=3.89D-04 MaxDP=3.09D-02 DE=-1.83D-02 OVMax= 3.27D-02

 Cycle   5  Pass 1  IDiag  1:
 RMSU=  1.79D-04    CP:  9.97D-01  5.26D-01  7.69D-01  4.81D-01
 E= -559.990204316167     Delta-E=       -0.005919878163 Rises=F Damp=F
 DIIS: error= 1.54D-03 at cycle   5 NSaved=   5.
 NSaved= 5 IEnMin= 5 EnMin= -559.990204316167     IErMin= 5 ErrMin= 1.54D-03
 ErrMax= 1.54D-03  0.00D+00 EMaxC= 1.00D-01 BMatC= 4.37D-04 BMatP= 6.37D-03
 IDIUse=3 WtCom= 9.85D-01 WtEn= 1.54D-02
 Coeff-Com:  0.700D-02 0.423D-01 0.165D+00 0.320D+00 0.465D+00
 Coeff-En:   0.000D+00 0.000D+00 0.000D+00 0.101D-01 0.990D+00
 Coeff:      0.689D-02 0.416D-01 0.162D+00 0.316D+00 0.473D+00
 Gap=     0.172 Goal=   None    Shift=    0.000
 RMSDP=9.52D-05 MaxDP=5.40D-03 DE=-5.92D-03 OVMax= 1.51D-02

 Cycle   6  Pass 1  IDiag  1:
 RMSU=  6.14D-05    CP:  9.98D-01  5.26D-01  7.73D-01  5.67D-01  6.82D-01
 E= -559.990589794254     Delta-E=       -0.000385478087 Rises=F Damp=F
 DIIS: error= 6.13D-04 at cycle   6 NSaved=   6.
 NSaved= 6 IEnMin= 6 EnMin= -559.990589794254     IErMin= 6 ErrMin= 6.13D-04
 ErrMax= 6.13D-04  0.00D+00 EMaxC= 1.00D-01 BMatC= 1.07D-04 BMatP= 4.37D-04
 IDIUse=3 WtCom= 9.94D-01 WtEn= 6.13D-03
 Coeff-Com:  0.107D-02 0.862D-02 0.532D-01 0.130D+00 0.346D+00 0.461D+00
 Coeff-En:   0.000D+00 0.000D+00 0.000D+00 0.000D+00 0.228D+00 0.772D+00
 Coeff:      0.106D-02 0.857D-02 0.529D-01 0.130D+00 0.345D+00 0.462D+00
 Gap=     0.172 Goal=   None    Shift=    0.000
 RMSDP=3.52D-05 MaxDP=1.00D-03 DE=-3.85D-04 OVMax= 4.48D-03

 Cycle   7  Pass 1  IDiag  1:
 RMSU=  1.47D-05    CP:  9.98D-01  5.29D-01  7.76D-01  5.61D-01  6.81D-01
                    CP:  5.30D-01
 E= -559.990704181898     Delta-E=       -0.000114387645 Rises=F Damp=F
 DIIS: error= 4.57D-05 at cycle   7 NSaved=   7.
 NSaved= 7 IEnMin= 7 EnMin= -559.990704181898     IErMin= 7 ErrMin= 4.57D-05
 ErrMax= 4.57D-05  0.00D+00 EMaxC= 1.00D-01 BMatC= 1.25D-06 BMatP= 1.07D-04
 IDIUse=1 WtCom= 1.00D+00 WtEn= 0.00D+00
 Coeff-Com:  0.409D-03 0.317D-02 0.218D-01 0.551D-01 0.156D+00 0.227D+00
 Coeff-Com:  0.537D+00
 Coeff:      0.409D-03 0.317D-02 0.218D-01 0.551D-01 0.156D+00 0.227D+00
 Coeff:      0.537D+00
 Gap=     0.172 Goal=   None    Shift=    0.000
 RMSDP=5.31D-06 MaxDP=1.82D-04 DE=-1.14D-04 OVMax= 3.81D-04

 Cycle   8  Pass 1  IDiag  1:
 RMSU=  3.90D-06    CP:  9.98D-01  5.29D-01  7.75D-01  5.62D-01  6.83D-01
                    CP:  5.42D-01  7.75D-01
 E= -559.990705442697     Delta-E=       -0.000001260799 Rises=F Damp=F
 DIIS: error= 1.78D-05 at cycle   8 NSaved=   8.
 NSaved= 8 IEnMin= 8 EnMin= -559.990705442697     IErMin= 8 ErrMin= 1.78D-05
 ErrMax= 1.78D-05  0.00D+00 EMaxC= 1.00D-01 BMatC= 1.44D-07 BMatP= 1.25D-06
 IDIUse=1 WtCom= 1.00D+00 WtEn= 0.00D+00
 Coeff-Com:  0.818D-04 0.446D-03 0.412D-02 0.113D-01 0.350D-01 0.568D-01
 Coeff-Com:  0.283D+00 0.609D+00
 Coeff:      0.818D-04 0.446D-03 0.412D-02 0.113D-01 0.350D-01 0.568D-01
 Coeff:      0.283D+00 0.609D+00
 Gap=     0.172 Goal=   None    Shift=    0.000
 RMSDP=1.92D-06 MaxDP=9.84D-05 DE=-1.26D-06 OVMax= 1.38D-04

 Cycle   9  Pass 1  IDiag  1:
 RMSU=  1.17D-06    CP:  9.98D-01  5.29D-01  7.75D-01  5.62D-01  6.87D-01
                    CP:  5.46D-01  7.91D-01  8.03D-01
 E= -559.990705601408     Delta-E=       -0.000000158711 Rises=F Damp=F
 DIIS: error= 5.40D-06 at cycle   9 NSaved=   9.
 NSaved= 9 IEnMin= 9 EnMin= -559.990705601408     IErMin= 9 ErrMin= 5.40D-06
 ErrMax= 5.40D-06  0.00D+00 EMaxC= 1.00D-01 BMatC= 1.35D-08 BMatP= 1.44D-07
 IDIUse=1 WtCom= 1.00D+00 WtEn= 0.00D+00
 Coeff-Com:  0.266D-04 0.840D-04 0.118D-02 0.344D-02 0.111D-01 0.190D-01
 Coeff-Com:  0.125D+00 0.331D+00 0.509D+00
 Coeff:      0.266D-04 0.840D-04 0.118D-02 0.344D-02 0.111D-01 0.190D-01
 Coeff:      0.125D+00 0.331D+00 0.509D+00
 Gap=     0.172 Goal=   None    Shift=    0.000
 RMSDP=4.87D-07 MaxDP=1.93D-05 DE=-1.59D-07 OVMax= 5.83D-05

 Cycle  10  Pass 1  IDiag  1:
 RMSU=  2.87D-07    CP:  9.98D-01  5.29D-01  7.75D-01  5.62D-01  6.87D-01
                    CP:  5.46D-01  7.97D-01  8.12D-01  7.86D-01
 E= -559.990705598650     Delta-E=        0.000000002757 Rises=F Damp=F
 DIIS: error= 2.16D-06 at cycle  10 NSaved=  10.
 NSaved=10 IEnMin= 9 EnMin= -559.990705601408     IErMin=10 ErrMin= 2.16D-06
 ErrMax= 2.16D-06  0.00D+00 EMaxC= 1.00D-01 BMatC= 2.48D-09 BMatP= 1.35D-08
 IDIUse=1 WtCom= 1.00D+00 WtEn= 0.00D+00
 Coeff-Com:  0.429D-05-0.185D-04 0.249D-04 0.188D-03 0.833D-03 0.202D-02
 Coeff-Com:  0.307D-01 0.105D+00 0.320D+00 0.541D+00
 Coeff:      0.429D-05-0.185D-04 0.249D-04 0.188D-03 0.833D-03 0.202D-02
 Coeff:      0.307D-01 0.105D+00 0.320D+00 0.541D+00
 Gap=     0.172 Goal=   None    Shift=    0.000
 RMSDP=1.93D-07 MaxDP=8.59D-06 DE= 2.76D-09 OVMax= 1.91D-05

 Cycle  11  Pass 1  IDiag  1:
 RMSU=  1.10D-07    CP:  9.98D-01  5.29D-01  7.75D-01  5.62D-01  6.86D-01
                    CP:  5.46D-01  8.02D-01  8.21D-01  7.94D-01  6.88D-01
 E= -559.990705600817     Delta-E=       -0.000000002167 Rises=F Damp=F
 DIIS: error= 3.56D-07 at cycle  11 NSaved=  11.
 NSaved=11 IEnMin= 9 EnMin= -559.990705601408     IErMin=11 ErrMin= 3.56D-07
 ErrMax= 3.56D-07  0.00D+00 EMaxC= 1.00D-01 BMatC= 6.78D-11 BMatP= 2.48D-09
 IDIUse=1 WtCom= 1.00D+00 WtEn= 0.00D+00
 Coeff-Com:  0.130D-05-0.963D-05-0.220D-04-0.232D-04-0.680D-05 0.230D-03
 Coeff-Com:  0.882D-02 0.338D-01 0.124D+00 0.252D+00 0.582D+00
 Coeff:      0.130D-05-0.963D-05-0.220D-04-0.232D-04-0.680D-05 0.230D-03
 Coeff:      0.882D-02 0.338D-01 0.124D+00 0.252D+00 0.582D+00
 Gap=     0.172 Goal=   None    Shift=    0.000
 RMSDP=4.55D-08 MaxDP=1.41D-06 DE=-2.17D-09 OVMax= 3.76D-06

 Cycle  12  Pass 1  IDiag  1:
 RMSU=  2.87D-08    CP:  9.98D-01  5.29D-01  7.75D-01  5.62D-01  6.86D-01
                    CP:  5.46D-01  8.02D-01  8.24D-01  8.07D-01  7.16D-01
                    CP:  7.99D-01
 E= -559.990705600858     Delta-E=       -0.000000000041 Rises=F Damp=F
 DIIS: error= 2.00D-07 at cycle  12 NSaved=  12.
 NSaved=12 IEnMin= 9 EnMin= -559.990705601408     IErMin=12 ErrMin= 2.00D-07
 ErrMax= 2.00D-07  0.00D+00 EMaxC= 1.00D-01 BMatC= 1.59D-11 BMatP= 6.78D-11
 IDIUse=1 WtCom= 1.00D+00 WtEn= 0.00D+00
 Coeff-Com:  0.352D-06-0.462D-05-0.167D-04-0.357D-04-0.969D-04-0.758D-04
 Coeff-Com:  0.219D-02 0.973D-02 0.431D-01 0.100D+00 0.365D+00 0.480D+00
 Coeff:      0.352D-06-0.462D-05-0.167D-04-0.357D-04-0.969D-04-0.758D-04
 Coeff:      0.219D-02 0.973D-02 0.431D-01 0.100D+00 0.365D+00 0.480D+00
 Gap=     0.172 Goal=   None    Shift=    0.000
 RMSDP=1.43D-08 MaxDP=4.15D-07 DE=-4.14D-11 OVMax= 2.03D-06

 Cycle  13  Pass 1  IDiag  1:
 RMSU=  9.88D-09    CP:  9.98D-01  5.29D-01  7.75D-01  5.62D-01  6.86D-01
                    CP:  5.46D-01  8.02D-01  8.25D-01  8.12D-01  7.14D-01
                    CP:  7.99D-01  7.31D-01
 E= -559.990705600888     Delta-E=       -0.000000000030 Rises=F Damp=F
 DIIS: error= 7.89D-08 at cycle  13 NSaved=  13.
 NSaved=13 IEnMin= 9 EnMin= -559.990705601408     IErMin=13 ErrMin= 7.89D-08
 ErrMax= 7.89D-08  0.00D+00 EMaxC= 1.00D-01 BMatC= 1.40D-12 BMatP= 1.59D-11
 IDIUse=1 WtCom= 1.00D+00 WtEn= 0.00D+00
 Coeff-Com:  0.134D-06-0.224D-05-0.854D-05-0.204D-04-0.595D-04-0.637D-04
 Coeff-Com:  0.676D-03 0.344D-02 0.172D-01 0.422D-01 0.182D+00 0.300D+00
 Coeff-Com:  0.455D+00
 Coeff:      0.134D-06-0.224D-05-0.854D-05-0.204D-04-0.595D-04-0.637D-04
 Coeff:      0.676D-03 0.344D-02 0.172D-01 0.422D-01 0.182D+00 0.300D+00
 Coeff:      0.455D+00
 Gap=     0.172 Goal=   None    Shift=    0.000
 RMSDP=4.90D-09 MaxDP=1.30D-07 DE=-3.01D-11 OVMax= 6.71D-07

 Error on total polarization charges =  0.01208
 SCF Done:  E(RB-P86) =  -559.990705601     A.U. after   13 cycles
            NFock= 13  Conv=0.49D-08     -V/T= 2.0044
 KE= 5.575122514226D+02 PE=-2.935242563234D+03 EE= 9.931270669432D+02
 Leave Link  502 at Tue Feb 23 00:11:41 2021, MaxMem=   104857600 cpu:             958.1 elap:              30.5
 (Enter /sw/arch/RedHatEnterpriseServer7/EB_production/2019/software/Gaussian/g16.c01/l601.exe)
 Copying SCF densities to generalized density rwf, IOpCl= 0 IROHF=0.

 **********************************************************************

            Population analysis using the SCF Density.

 **********************************************************************

 Orbital symmetries:
       Occupied  (A) (A) (A) (A) (A) (A) (A) (A) (A) (A) (A) (A)
                 (A) (A) (A) (A) (A) (A) (A) (A) (A) (A) (A) (A)
                 (A) (A) (A) (A) (A) (A) (A) (A) (A) (A) (A) (A)
                 (A) (A) (A) (A) (A) (A) (A) (A) (A) (A) (A) (A)
                 (A)
       Virtual   (A) (A) (A) (A) (A) (A) (A) (A) (A) (A) (A) (A)
                 (A) (A) (A) (A) (A) (A) (A) (A) (A) (A) (A) (A)
                 (A) (A) (A) (A) (A) (A) (A) (A) (A) (A) (A) (A)
                 (A) (A) (A) (A) (A) (A) (A) (A) (A) (A) (A) (A)
                 (A) (A) (A) (A) (A) (A) (A) (A) (A) (A) (A) (A)
                 (A) (A) (A) (A) (A) (A) (A) (A) (A) (A) (A) (A)
                 (A) (A) (A) (A) (A) (A) (A) (A) (A) (A) (A) (A)
                 (A) (A) (A) (A) (A) (A) (A) (A) (A) (A) (A) (A)
                 (A) (A) (A) (A) (A) (A) (A) (A) (A) (A) (A) (A)
                 (A) (A) (A) (A) (A) (A) (A) (A) (A) (A) (A) (A)
                 (A) (A) (A) (A) (A) (A) (A) (A) (A) (A) (A) (A)
                 (A) (A) (A) (A) (A) (A) (A) (A) (A) (A) (A) (A)
                 (A) (A) (A) (A) (A) (A) (A) (A) (A) (A) (A) (A)
                 (A) (A) (A) (A) (A) (A) (A) (A) (A) (A) (A) (A)
                 (A) (A) (A) (A) (A) (A) (A) (A) (A) (A) (A) (A)
                 (A) (A) (A) (A) (A) (A) (A) (A) (A) (A) (A) (A)
                 (A) (A) (A) (A) (A) (A) (A) (A) (A) (A) (A) (A)
                 (A) (A) (A) (A) (A) (A) (A) (A) (A) (A) (A) (A)
                 (A) (A) (A) (A) (A) (A) (A) (A) (A) (A) (A) (A)
                 (A) (A) (A) (A) (A) (A) (A) (A) (A) (A) (A) (A)
                 (A) (A) (A) (A) (A) (A) (A) (A) (A) (A) (A) (A)
                 (A) (A) (A) (A) (A) (A) (A) (A) (A) (A) (A) (A)
                 (A) (A) (A) (A) (A) (A) (A) (A) (A) (A) (A) (A)
                 (A) (A) (A) (A) (A) (A) (A) (A) (A) (A) (A) (A)
                 (A) (A) (A) (A) (A) (A) (A) (A) (A) (A) (A) (A)
                 (A) (A) (A) (A) (A) (A)
 The electronic state is 1-A.
 Alpha  occ. eigenvalues --  -18.79142 -14.16709  -9.97605  -9.97536  -9.97047
 Alpha  occ. eigenvalues --   -9.96499  -9.96393  -9.93702  -9.91632  -9.91628
 Alpha  occ. eigenvalues --   -9.91152  -9.91124  -9.91102  -0.96341  -0.95589
 Alpha  occ. eigenvalues --   -0.80130  -0.73839  -0.72457  -0.70121  -0.69783
 Alpha  occ. eigenvalues --   -0.67124  -0.63122  -0.58517  -0.57468  -0.55122
 Alpha  occ. eigenvalues --   -0.51525  -0.50728  -0.49737  -0.47637  -0.46688
 Alpha  occ. eigenvalues --   -0.45017  -0.43674  -0.43212  -0.40982  -0.39875
 Alpha  occ. eigenvalues --   -0.39420  -0.38565  -0.38291  -0.38024  -0.37423
 Alpha  occ. eigenvalues --   -0.36886  -0.36119  -0.34493  -0.32753  -0.32253
 Alpha  occ. eigenvalues --   -0.31764  -0.25085  -0.25021  -0.24830
 Alpha virt. eigenvalues --   -0.07667  -0.06395  -0.01352   0.00241   0.02619
 Alpha virt. eigenvalues --    0.02944   0.03099   0.03640   0.04394   0.04720
 Alpha virt. eigenvalues --    0.05377   0.06932   0.07392   0.07465   0.07789
 Alpha virt. eigenvalues --    0.08266   0.09392   0.09458   0.10079   0.10384
 Alpha virt. eigenvalues --    0.10945   0.11538   0.12829   0.13112   0.14239
 Alpha virt. eigenvalues --    0.14331   0.14656   0.15517   0.17028   0.18092
 Alpha virt. eigenvalues --    0.18416   0.19839   0.20350   0.20842   0.20945
 Alpha virt. eigenvalues --    0.21499   0.22430   0.23385   0.23945   0.24501
 Alpha virt. eigenvalues --    0.24724   0.25863   0.26258   0.27027   0.28017
 Alpha virt. eigenvalues --    0.28892   0.29277   0.30427   0.31113   0.31476
 Alpha virt. eigenvalues --    0.31751   0.33122   0.33543   0.34616   0.35052
 Alpha virt. eigenvalues --    0.36029   0.36487   0.37259   0.37943   0.38301
 Alpha virt. eigenvalues --    0.39351   0.39973   0.40597   0.40793   0.41131
 Alpha virt. eigenvalues --    0.41371   0.41649   0.42138   0.42773   0.43007
 Alpha virt. eigenvalues --    0.43498   0.44157   0.44682   0.44944   0.45995
 Alpha virt. eigenvalues --    0.46404   0.46684   0.47310   0.48008   0.48183
 Alpha virt. eigenvalues --    0.48596   0.49496   0.50299   0.50791   0.53856
 Alpha virt. eigenvalues --    0.55187   0.56671   0.57352   0.59452   0.61165
 Alpha virt. eigenvalues --    0.62161   0.62415   0.64004   0.65009   0.65718
 Alpha virt. eigenvalues --    0.67201   0.68850   0.71080   0.74322   0.75037
 Alpha virt. eigenvalues --    0.75551   0.80847   0.86681   0.88726   1.01183
 Alpha virt. eigenvalues --    1.03979   1.10423   1.11970   1.13087   1.14331
 Alpha virt. eigenvalues --    1.14581   1.15819   1.16672   1.17290   1.18086
 Alpha virt. eigenvalues --    1.19152   1.19468   1.20182   1.20880   1.21676
 Alpha virt. eigenvalues --    1.22430   1.23292   1.23828   1.24327   1.25083
 Alpha virt. eigenvalues --    1.25337   1.26401   1.28326   1.29085   1.30916
 Alpha virt. eigenvalues --    1.33073   1.33448   1.34004   1.34457   1.36059
 Alpha virt. eigenvalues --    1.36907   1.37332   1.37942   1.38406   1.38961
 Alpha virt. eigenvalues --    1.39982   1.40189   1.41692   1.42271   1.43287
 Alpha virt. eigenvalues --    1.44144   1.45116   1.45543   1.46286   1.46835
 Alpha virt. eigenvalues --    1.47410   1.48925   1.50016   1.51002   1.53382
 Alpha virt. eigenvalues --    1.53847   1.56600   1.58054   1.59056   1.60899
 Alpha virt. eigenvalues --    1.61971   1.63646   1.64542   1.64833   1.66898
 Alpha virt. eigenvalues --    1.67523   1.68523   1.68849   1.70084   1.71072
 Alpha virt. eigenvalues --    1.71276   1.72039   1.72310   1.73031   1.73282
 Alpha virt. eigenvalues --    1.74008   1.74308   1.75444   1.76556   1.78324
 Alpha virt. eigenvalues --    1.79487   1.79884   1.80903   1.81603   1.82314
 Alpha virt. eigenvalues --    1.83898   1.84423   1.84789   1.85493   1.87329
 Alpha virt. eigenvalues --    1.88881   1.89328   1.90373   1.91930   1.93320
 Alpha virt. eigenvalues --    1.94681   1.96499   1.97524   1.98166   1.99843
 Alpha virt. eigenvalues --    2.01404   2.02893   2.06210   2.08781   2.10832
 Alpha virt. eigenvalues --    2.14296   2.16349   2.17737   2.18077   2.18901
 Alpha virt. eigenvalues --    2.21021   2.21103   2.21349   2.23522   2.23892
 Alpha virt. eigenvalues --    2.26074   2.28318   2.29573   2.29770   2.31024
 Alpha virt. eigenvalues --    2.33620   2.35220   2.37198   2.37814   2.40240
 Alpha virt. eigenvalues --    2.41426   2.42100   2.43051   2.44347   2.45560
 Alpha virt. eigenvalues --    2.47391   2.48935   2.49484   2.50585   2.52073
 Alpha virt. eigenvalues --    2.53931   2.54114   2.54793   2.56750   2.58422
 Alpha virt. eigenvalues --    2.58801   2.60214   2.61423   2.62194   2.62547
 Alpha virt. eigenvalues --    2.64886   2.65953   2.67897   2.68863   2.69596
 Alpha virt. eigenvalues --    2.71453   2.76423   2.78648   2.79972   2.82787
 Alpha virt. eigenvalues --    2.83954   2.85935   2.86668   2.89172   2.90497
 Alpha virt. eigenvalues --    2.94263   2.97366   2.98962   3.01186   3.02010
 Alpha virt. eigenvalues --    3.03931   3.05375   3.06434   3.07055   3.08211
 Alpha virt. eigenvalues --    3.08643   3.10836   3.13115   3.17216   3.19413
 Alpha virt. eigenvalues --    3.22289   3.23883   3.26784   3.27105   3.28866
 Alpha virt. eigenvalues --    3.30215   3.32421   3.33711   3.34870   3.36122
 Alpha virt. eigenvalues --    3.37988   3.42808   3.54017   3.55654   3.57071
 Alpha virt. eigenvalues --    3.76305   3.87603   4.14981  21.14046  21.62690
 Alpha virt. eigenvalues --   21.64958  21.68060  21.81490  21.81826  21.83042
 Alpha virt. eigenvalues --   21.85445  21.87852  21.89860  21.99824  31.66389
 Alpha virt. eigenvalues --   43.14361
          Condensed to atoms (all electrons):
               1          2          3          4          5          6
     1  C    5.166899   0.260345  -0.073309  -0.118903   0.014806  -0.000106
     2  N    0.260345   6.556196   0.259407   0.116107   0.019500   0.005737
     3  C   -0.073309   0.259407   5.123784  -0.064961   0.013848  -0.000432
     4  C   -0.118903   0.116107  -0.064961   5.813876  -0.011886  -0.096814
     5  C    0.014806   0.019500   0.013848  -0.011886   5.120360   0.308670
     6  O   -0.000106   0.005737  -0.000432  -0.096814   0.308670   7.940915
     7  C   -0.076199   0.097645  -0.148219  -0.055588   0.012065  -0.005642
     8  C    0.015260  -0.003484   0.031801  -0.029170  -0.008761   0.005463
     9  C   -0.006429   0.011470   0.001213  -0.010323   0.000970   0.000319
    10  C    0.000245  -0.001208   0.000195   0.003162  -0.000249  -0.000032
    11  C   -0.001115   0.000719  -0.000015  -0.002251   0.000295   0.000063
    12  C    0.001875  -0.001465   0.000170   0.005333  -0.000790  -0.001384
    13  C   -0.001118  -0.014446  -0.001189   0.010402   0.003907  -0.002843
    14  H    0.384952  -0.012148  -0.004491  -0.010435  -0.000288  -0.000010
    15  H    0.386577  -0.019325  -0.008085   0.009281  -0.000439   0.000005
    16  H    0.389845  -0.014105   0.007822  -0.001515   0.000215  -0.000024
    17  H    0.008744  -0.014875   0.388906  -0.017863   0.007947   0.000014
    18  H   -0.005529  -0.013006   0.389689   0.008650   0.000165  -0.000006
    19  H   -0.009221  -0.013114   0.381621  -0.002376  -0.004478   0.000154
    20  H   -0.006247  -0.008774  -0.017911   0.355752  -0.015847   0.014214
    21  H   -0.003646  -0.008753   0.011875   0.379501  -0.028111   0.012592
    22  H   -0.000754  -0.005368  -0.009478  -0.063826   0.420770  -0.053414
    23  H   -0.000334  -0.002861   0.015383  -0.032590   0.413319  -0.050897
    24  H    0.000031  -0.000466   0.000049   0.013264  -0.034046   0.305486
    25  H    0.009310  -0.018954   0.000779  -0.016460  -0.000041   0.000170
    26  H   -0.016667  -0.019574  -0.001867   0.009777  -0.000029  -0.000028
    27  H    0.001100  -0.000395  -0.000244  -0.000398   0.000003   0.000001
    28  H    0.000043  -0.000024  -0.000001   0.000023  -0.000001  -0.000000
    29  H   -0.000006   0.000006  -0.000000  -0.000025   0.000003   0.000000
    30  H    0.000014  -0.000016  -0.000001  -0.000000   0.000017  -0.000027
    31  H   -0.000672   0.000583   0.000188   0.004857  -0.006344   0.003078
               7          8          9         10         11         12
     1  C   -0.076199   0.015260  -0.006429   0.000245  -0.001115   0.001875
     2  N    0.097645  -0.003484   0.011470  -0.001208   0.000719  -0.001465
     3  C   -0.148219   0.031801   0.001213   0.000195  -0.000015   0.000170
     4  C   -0.055588  -0.029170  -0.010323   0.003162  -0.002251   0.005333
     5  C    0.012065  -0.008761   0.000970  -0.000249   0.000295  -0.000790
     6  O   -0.005642   0.005463   0.000319  -0.000032   0.000063  -0.001384
     7  C    5.937864  -0.085921  -0.152275   0.028413  -0.004936   0.033810
     8  C   -0.085921   5.790100   0.237450   0.077515  -0.148219   0.042269
     9  C   -0.152275   0.237450   5.401002   0.269028   0.080456  -0.193776
    10  C    0.028413   0.077515   0.269028   5.155592   0.327891   0.064046
    11  C   -0.004936  -0.148219   0.080456   0.327891   5.158561   0.341579
    12  C    0.033810   0.042269  -0.193776   0.064046   0.341579   5.155882
    13  C   -0.031474   0.276660   0.066624  -0.159987   0.042269   0.320489
    14  H    0.009274   0.000921   0.000628  -0.000038   0.000010  -0.000057
    15  H    0.008409  -0.011450   0.002263   0.000182   0.000056  -0.000063
    16  H   -0.019257   0.011392  -0.009283   0.001481  -0.000721   0.001409
    17  H   -0.002292  -0.000056  -0.000103  -0.000007   0.000002   0.000003
    18  H   -0.010380  -0.000759   0.000825   0.000009   0.000003  -0.000011
    19  H    0.012427  -0.001657  -0.000094  -0.000001  -0.000000  -0.000000
    20  H    0.021145  -0.003644  -0.001081   0.000047  -0.000056   0.000219
    21  H   -0.043986   0.018686   0.007288  -0.000486   0.000659  -0.002710
    22  H    0.054930  -0.026775  -0.002227   0.000179  -0.000189   0.001602
    23  H   -0.011054   0.003769   0.000235  -0.000009   0.000008  -0.000106
    24  H    0.000128  -0.000146  -0.000004   0.000000  -0.000001   0.000022
    25  H    0.409524  -0.044154   0.000705  -0.000384  -0.000080   0.000783
    26  H    0.442934  -0.066658  -0.000709   0.001996  -0.000522   0.000247
    27  H   -0.009033  -0.079237   0.460372  -0.052984   0.015889  -0.005407
    28  H   -0.000879   0.018171  -0.059071   0.441839  -0.063330   0.014057
    29  H   -0.000244  -0.005055   0.018614  -0.063062   0.441146  -0.059722
    30  H   -0.000772   0.016195  -0.001787   0.013426  -0.060812   0.438951
    31  H   -0.020685  -0.060675   0.020313  -0.005149   0.015190  -0.048549
              13         14         15         16         17         18
     1  C   -0.001118   0.384952   0.386577   0.389845   0.008744  -0.005529
     2  N   -0.014446  -0.012148  -0.019325  -0.014105  -0.014875  -0.013006
     3  C   -0.001189  -0.004491  -0.008085   0.007822   0.388906   0.389689
     4  C    0.010402  -0.010435   0.009281  -0.001515  -0.017863   0.008650
     5  C    0.003907  -0.000288  -0.000439   0.000215   0.007947   0.000165
     6  O   -0.002843  -0.000010   0.000005  -0.000024   0.000014  -0.000006
     7  C   -0.031474   0.009274   0.008409  -0.019257  -0.002292  -0.010380
     8  C    0.276660   0.000921  -0.011450   0.011392  -0.000056  -0.000759
     9  C    0.066624   0.000628   0.002263  -0.009283  -0.000103   0.000825
    10  C   -0.159987  -0.000038   0.000182   0.001481  -0.000007   0.000009
    11  C    0.042269   0.000010   0.000056  -0.000721   0.000002   0.000003
    12  C    0.320489  -0.000057  -0.000063   0.001409   0.000003  -0.000011
    13  C    5.230192   0.000072  -0.000142  -0.000795   0.000502  -0.000184
    14  H    0.000072   0.460896  -0.017758  -0.017955   0.000106  -0.000556
    15  H   -0.000142  -0.017758   0.458880  -0.019781   0.000036   0.002574
    16  H   -0.000795  -0.017955  -0.019781   0.455969  -0.000302   0.000024
    17  H    0.000502   0.000106   0.000036  -0.000302   0.464384  -0.019221
    18  H   -0.000184  -0.000556   0.002574   0.000024  -0.019221   0.466725
    19  H    0.000033   0.002236   0.000334   0.000050  -0.018929  -0.019299
    20  H    0.001085   0.004161   0.000231  -0.001314   0.000739  -0.000159
    21  H   -0.007791  -0.000682  -0.000075   0.002706  -0.000188  -0.000122
    22  H    0.011201   0.000027   0.000019   0.000032   0.000170  -0.000048
    23  H   -0.000968   0.000011   0.000003  -0.000018  -0.003343   0.000301
    24  H    0.000106   0.000000  -0.000001   0.000000   0.000018  -0.000001
    25  H    0.000333  -0.000227   0.000222  -0.000205   0.002912  -0.000652
    26  H    0.001284   0.000031   0.000827   0.001157  -0.001327   0.003485
    27  H    0.017203   0.000096  -0.000260  -0.000961   0.000012  -0.000017
    28  H   -0.001888  -0.000000  -0.000013   0.000039  -0.000000  -0.000000
    29  H    0.018160   0.000000   0.000000  -0.000007   0.000000   0.000000
    30  H   -0.055240  -0.000000  -0.000000   0.000013   0.000000  -0.000000
    31  H    0.436873   0.000012   0.000012  -0.000157  -0.000055   0.000012
              19         20         21         22         23         24
     1  C   -0.009221  -0.006247  -0.003646  -0.000754  -0.000334   0.000031
     2  N   -0.013114  -0.008774  -0.008753  -0.005368  -0.002861  -0.000466
     3  C    0.381621  -0.017911   0.011875  -0.009478   0.015383   0.000049
     4  C   -0.002376   0.355752   0.379501  -0.063826  -0.032590   0.013264
     5  C   -0.004478  -0.015847  -0.028111   0.420770   0.413319  -0.034046
     6  O    0.000154   0.014214   0.012592  -0.053414  -0.050897   0.305486
     7  C    0.012427   0.021145  -0.043986   0.054930  -0.011054   0.000128
     8  C   -0.001657  -0.003644   0.018686  -0.026775   0.003769  -0.000146
     9  C   -0.000094  -0.001081   0.007288  -0.002227   0.000235  -0.000004
    10  C   -0.000001   0.000047  -0.000486   0.000179  -0.000009   0.000000
    11  C   -0.000000  -0.000056   0.000659  -0.000189   0.000008  -0.000001
    12  C   -0.000000   0.000219  -0.002710   0.001602  -0.000106   0.000022
    13  C    0.000033   0.001085  -0.007791   0.011201  -0.000968   0.000106
    14  H    0.002236   0.004161  -0.000682   0.000027   0.000011   0.000000
    15  H    0.000334   0.000231  -0.000075   0.000019   0.000003  -0.000001
    16  H    0.000050  -0.001314   0.002706   0.000032  -0.000018   0.000000
    17  H   -0.018929   0.000739  -0.000188   0.000170  -0.003343   0.000018
    18  H   -0.019299  -0.000159  -0.000122  -0.000048   0.000301  -0.000001
    19  H    0.463694   0.003657  -0.000240   0.000789  -0.002153  -0.000009
    20  H    0.003657   0.473327  -0.021127   0.009230  -0.013946  -0.000812
    21  H   -0.000240  -0.021127   0.459731  -0.008495   0.007465  -0.000485
    22  H    0.000789   0.009230  -0.008495   0.579902  -0.055267  -0.003345
    23  H   -0.002153  -0.013946   0.007465  -0.055267   0.552595  -0.002843
    24  H   -0.000009  -0.000812  -0.000485  -0.003345  -0.002843   0.412816
    25  H   -0.000154  -0.000416   0.002032  -0.006141   0.001438  -0.000032
    26  H    0.000214   0.000159  -0.000710   0.000962  -0.000203   0.000000
    27  H   -0.000004  -0.000032   0.000128  -0.000038   0.000003  -0.000000
    28  H    0.000000   0.000000  -0.000004   0.000001  -0.000000   0.000000
    29  H   -0.000000  -0.000000   0.000011  -0.000001   0.000000  -0.000000
    30  H    0.000000   0.000001  -0.000040   0.000029  -0.000001   0.000000
    31  H   -0.000010  -0.000389   0.002946  -0.008321   0.000890  -0.000132
              25         26         27         28         29         30
     1  C    0.009310  -0.016667   0.001100   0.000043  -0.000006   0.000014
     2  N   -0.018954  -0.019574  -0.000395  -0.000024   0.000006  -0.000016
     3  C    0.000779  -0.001867  -0.000244  -0.000001  -0.000000  -0.000001
     4  C   -0.016460   0.009777  -0.000398   0.000023  -0.000025  -0.000000
     5  C   -0.000041  -0.000029   0.000003  -0.000001   0.000003   0.000017
     6  O    0.000170  -0.000028   0.000001  -0.000000   0.000000  -0.000027
     7  C    0.409524   0.442934  -0.009033  -0.000879  -0.000244  -0.000772
     8  C   -0.044154  -0.066658  -0.079237   0.018171  -0.005055   0.016195
     9  C    0.000705  -0.000709   0.460372  -0.059071   0.018614  -0.001787
    10  C   -0.000384   0.001996  -0.052984   0.441839  -0.063062   0.013426
    11  C   -0.000080  -0.000522   0.015889  -0.063330   0.441146  -0.060812
    12  C    0.000783   0.000247  -0.005407   0.014057  -0.059722   0.438951
    13  C    0.000333   0.001284   0.017203  -0.001888   0.018160  -0.055240
    14  H   -0.000227   0.000031   0.000096  -0.000000   0.000000  -0.000000
    15  H    0.000222   0.000827  -0.000260  -0.000013   0.000000  -0.000000
    16  H   -0.000205   0.001157  -0.000961   0.000039  -0.000007   0.000013
    17  H    0.002912  -0.001327   0.000012  -0.000000   0.000000   0.000000
    18  H   -0.000652   0.003485  -0.000017  -0.000000   0.000000  -0.000000
    19  H   -0.000154   0.000214  -0.000004   0.000000  -0.000000   0.000000
    20  H   -0.000416   0.000159  -0.000032   0.000000  -0.000000   0.000001
    21  H    0.002032  -0.000710   0.000128  -0.000004   0.000011  -0.000040
    22  H   -0.006141   0.000962  -0.000038   0.000001  -0.000001   0.000029
    23  H    0.001438  -0.000203   0.000003  -0.000000   0.000000  -0.000001
    24  H   -0.000032   0.000000  -0.000000   0.000000  -0.000000   0.000000
    25  H    0.424231  -0.012018   0.000180   0.000017   0.000001  -0.000017
    26  H   -0.012018   0.422182  -0.001811   0.000005  -0.000003   0.000019
    27  H    0.000180  -0.001811   0.500698  -0.005069  -0.000074  -0.000006
    28  H    0.000017   0.000005  -0.005069   0.510650  -0.006108  -0.000156
    29  H    0.000001  -0.000003  -0.000074  -0.006108   0.506557  -0.005706
    30  H   -0.000017   0.000019  -0.000006  -0.000156  -0.005706   0.511003
    31  H   -0.001037  -0.000330   0.000237  -0.000007  -0.000117  -0.005458
              31
     1  C   -0.000672
     2  N    0.000583
     3  C    0.000188
     4  C    0.004857
     5  C   -0.006344
     6  O    0.003078
     7  C   -0.020685
     8  C   -0.060675
     9  C    0.020313
    10  C   -0.005149
    11  C    0.015190
    12  C   -0.048549
    13  C    0.436873
    14  H    0.000012
    15  H    0.000012
    16  H   -0.000157
    17  H   -0.000055
    18  H    0.000012
    19  H   -0.000010
    20  H   -0.000389
    21  H    0.002946
    22  H   -0.008321
    23  H    0.000890
    24  H   -0.000132
    25  H   -0.001037
    26  H   -0.000330
    27  H    0.000237
    28  H   -0.000007
    29  H   -0.000117
    30  H   -0.005458
    31  H    0.500951
 Mulliken charges:
               1
     1  C   -0.319792
     2  N   -0.155354
     3  C   -0.296527
     4  C   -0.194606
     5  C   -0.225551
     6  O   -0.385220
     7  C   -0.389732
     8  C    0.030169
     9  C   -0.142612
    10  C   -0.101651
    11  C   -0.142551
    12  C   -0.108704
    13  C   -0.159328
    14  H    0.201213
    15  H    0.207482
    16  H    0.214243
    17  H    0.204064
    18  H    0.197486
    19  H    0.206531
    20  H    0.207786
    21  H    0.222028
    22  H    0.163847
    23  H    0.181172
    24  H    0.310401
    25  H    0.248333
    26  H    0.237175
    27  H    0.160045
    28  H    0.151706
    29  H    0.155632
    30  H    0.150371
    31  H    0.171944
 Sum of Mulliken charges =   1.00000
 Mulliken charges with hydrogens summed into heavy atoms:
               1
     1  C    0.303145
     2  N   -0.155354
     3  C    0.311554
     4  C    0.235208
     5  C    0.119468
     6  O   -0.074819
     7  C    0.095776
     8  C    0.030169
     9  C    0.017433
    10  C    0.050056
    11  C    0.013081
    12  C    0.041667
    13  C    0.012616
 Electronic spatial extent (au):  <R**2>=           2856.7674
 Charge=              1.0000 electrons
 Dipole moment (field-independent basis, Debye):
    X=             -5.9805    Y=             -4.6346    Z=             -1.4848  Tot=              7.7104
 Quadrupole moment (field-independent basis, Debye-Ang):
   XX=            -49.8159   YY=            -57.4781   ZZ=            -74.5989
   XY=              4.3880   XZ=              7.7393   YZ=             -6.4130
 Traceless Quadrupole moment (field-independent basis, Debye-Ang):
   XX=             10.8151   YY=              3.1528   ZZ=            -13.9679
   XY=              4.3880   XZ=              7.7393   YZ=             -6.4130
 Octapole moment (field-independent basis, Debye-Ang**2):
  XXX=            -44.1269  YYY=             -3.8176  ZZZ=              2.0764  XYY=            -28.3283
  XXY=              2.8010  XXZ=              0.2190  XZZ=            -21.7774  YZZ=            -10.5864
  YYZ=            -13.6799  XYZ=             13.1662
 Hexadecapole moment (field-independent basis, Debye-Ang**3):
 XXXX=          -2043.9965 YYYY=           -860.8323 ZZZZ=           -290.1838 XXXY=            -18.7954
 XXXZ=            105.8504 YYYX=            -48.9913 YYYZ=            -45.7511 ZZZX=              0.7856
 ZZZY=             -6.5724 XXYY=           -431.9890 XXZZ=           -459.6224 YYZZ=           -217.2442
 XXYZ=            -33.3540 YYXZ=             44.2911 ZZXY=              7.8257
 N-N= 8.246125392670D+02 E-N=-2.935242562604D+03  KE= 5.575122514226D+02
 No NMR shielding tensors so no spin-rotation constants.
 Leave Link  601 at Tue Feb 23 00:11:42 2021, MaxMem=   104857600 cpu:               7.2 elap:               0.3
 (Enter /sw/arch/RedHatEnterpriseServer7/EB_production/2019/software/Gaussian/g16.c01/l701.exe)
 ... and contract with generalized density number  0.
 Compute integral first derivatives.
 R6Disp: Adding Grimme-D3 dispersion energy 1st derivatives to the gradient.
 PrsmSu:  requested number of processors reduced to:  27 ShMem   1 Linda.
 D1PCM: PCM CHGder 1st derivatives, ID1Alg=3 FixD1E=F DoIter=F DoCFld=F I1PDM=0.
 GePol: Maximum number of non-zero 1st derivatives   =     206
 CoulSu:  requested number of processors reduced to:  28 ShMem   1 Linda.
 CoulSu:  requested number of processors reduced to:  29 ShMem   1 Linda.
 Leave Link  701 at Tue Feb 23 00:11:43 2021, MaxMem=   104857600 cpu:              43.0 elap:               1.5
 (Enter /sw/arch/RedHatEnterpriseServer7/EB_production/2019/software/Gaussian/g16.c01/l702.exe)
 L702 exits ... SP integral derivatives will be done elsewhere.
 Leave Link  702 at Tue Feb 23 00:11:43 2021, MaxMem=   104857600 cpu:               0.6 elap:               0.0
 (Enter /sw/arch/RedHatEnterpriseServer7/EB_production/2019/software/Gaussian/g16.c01/l703.exe)
 Integral derivatives from FoFJK, PRISM(SPDF).
[...]
 Alpha virt. eigenvalues --    1.78842   1.79994   1.81982   1.82567   1.83610
 Alpha virt. eigenvalues --    1.84277   1.85250   1.86412   1.87201   1.87704
 Alpha virt. eigenvalues --    1.88867   1.89541   1.90516   1.93369   1.95290
 Alpha virt. eigenvalues --    1.96522   1.97711   1.98400   1.98749   2.00587
 Alpha virt. eigenvalues --    2.02465   2.04349   2.07591   2.10820   2.12176
 Alpha virt. eigenvalues --    2.13928   2.15842   2.17806   2.19352   2.20498
 Alpha virt. eigenvalues --    2.21815   2.22263   2.22805   2.25093   2.26197
 Alpha virt. eigenvalues --    2.27761   2.28245   2.28601   2.30684   2.31828
 Alpha virt. eigenvalues --    2.35941   2.36423   2.37885   2.38872   2.40071
 Alpha virt. eigenvalues --    2.41485   2.42366   2.44295   2.44913   2.45440
 Alpha virt. eigenvalues --    2.48140   2.49385   2.51205   2.52270   2.53117
 Alpha virt. eigenvalues --    2.54762   2.55892   2.57358   2.58173   2.58844
 Alpha virt. eigenvalues --    2.60168   2.61966   2.62596   2.63496   2.64489
 Alpha virt. eigenvalues --    2.65748   2.67074   2.68743   2.69989   2.70836
 Alpha virt. eigenvalues --    2.72222   2.76861   2.80602   2.83255   2.84827
 Alpha virt. eigenvalues --    2.86221   2.87440   2.89829   2.91680   2.93642
 Alpha virt. eigenvalues --    2.94228   2.95750   2.96621   2.99187   3.02549
 Alpha virt. eigenvalues --    3.03253   3.05231   3.05901   3.07074   3.09124
 Alpha virt. eigenvalues --    3.10728   3.12856   3.13056   3.17886   3.18994
 Alpha virt. eigenvalues --    3.20552   3.22296   3.23723   3.26882   3.27017
 Alpha virt. eigenvalues --    3.28098   3.31690   3.31921   3.34214   3.36119
 Alpha virt. eigenvalues --    3.39361   3.44719   3.55875   3.58354   3.60902
 Alpha virt. eigenvalues --    3.68562   3.88758   4.17016  21.10255  21.59345
 Alpha virt. eigenvalues --   21.60163  21.69169  21.81080  21.81949  21.83325
 Alpha virt. eigenvalues --   21.86934  21.88506  21.90075  21.98526  31.72267
 Alpha virt. eigenvalues --   43.15618
          Condensed to atoms (all electrons):
               1          2          3          4          5          6
     1  C    5.179142   0.247118  -0.071748  -0.128116   0.017655  -0.000144
     2  N    0.247118   6.664866   0.239212   0.068059   0.022641   0.008233
     3  C   -0.071748   0.239212   5.139477  -0.049251   0.002974  -0.000061
     4  C   -0.128116   0.068059  -0.049251   5.951722  -0.044141  -0.124476
     5  C    0.017655   0.022641   0.002974  -0.044141   5.140848   0.320247
     6  O   -0.000144   0.008233  -0.000061  -0.124476   0.320247   7.976577
     7  C   -0.077789   0.128710  -0.155408  -0.088191   0.017844  -0.007679
     8  C    0.013339  -0.018109   0.032759  -0.017504  -0.014707   0.007619
     9  C   -0.005837   0.004884   0.000738  -0.005363  -0.000524   0.000570
    10  C   -0.001279  -0.000638   0.000274   0.003509  -0.000209  -0.000068
    11  C   -0.000879   0.000224  -0.000046  -0.002113   0.000275   0.000139
    12  C    0.001762  -0.000200   0.000275   0.002059   0.000211  -0.002564
    13  C   -0.000310  -0.016869  -0.001509   0.010219   0.007422  -0.006404
    14  H    0.386339  -0.015272  -0.005114  -0.011066  -0.000326  -0.000029
    15  H    0.387704  -0.022027  -0.008700   0.010205  -0.000623   0.000008
    16  H    0.393049  -0.015888   0.008258  -0.002498   0.000335  -0.000046
    17  H    0.009013  -0.013825   0.388243  -0.022156   0.011529   0.000055
    18  H   -0.007311  -0.016084   0.390460   0.009804  -0.000194  -0.000006
    19  H   -0.008530  -0.016335   0.383386  -0.004792  -0.004011   0.000144
    20  H   -0.006978  -0.003207  -0.017349   0.332223   0.000369   0.016158
    21  H   -0.003145  -0.015690   0.011552   0.402775  -0.043695   0.013383
    22  H   -0.000929   0.001533  -0.013223  -0.088707   0.435302  -0.053382
    23  H   -0.000335  -0.005892   0.016070  -0.008049   0.388452  -0.043218
    24  H    0.000035  -0.000602   0.000056   0.013389  -0.032337   0.306258
    25  H    0.009020  -0.020725   0.001305  -0.015902  -0.002600   0.000540
    26  H   -0.015700  -0.020762  -0.001825   0.009220   0.000456  -0.000042
    27  H    0.002510  -0.001139  -0.000359  -0.000137  -0.000028   0.000002
    28  H    0.000002  -0.000012  -0.000001   0.000019  -0.000001  -0.000000
    29  H   -0.000003   0.000003  -0.000000  -0.000021   0.000002   0.000001
    30  H    0.000011  -0.000006  -0.000001  -0.000066   0.000023  -0.000057
    31  H   -0.000646  -0.000849   0.000062   0.009047  -0.006682   0.008297
               7          8          9         10         11         12
     1  C   -0.077789   0.013339  -0.005837  -0.001279  -0.000879   0.001762
     2  N    0.128710  -0.018109   0.004884  -0.000638   0.000224  -0.000200
     3  C   -0.155408   0.032759   0.000738   0.000274  -0.000046   0.000275
     4  C   -0.088191  -0.017504  -0.005363   0.003509  -0.002113   0.002059
     5  C    0.017844  -0.014707  -0.000524  -0.000209   0.000275   0.000211
     6  O   -0.007679   0.007619   0.000570  -0.000068   0.000139  -0.002564
     7  C    5.917037  -0.060544  -0.140051   0.027087  -0.003715   0.033049
     8  C   -0.060544   5.820674   0.210724   0.112437  -0.168869   0.086580
     9  C   -0.140051   0.210724   5.450770   0.210952   0.091160  -0.208220
    10  C    0.027087   0.112437   0.210952   5.267986   0.277154   0.092003
    11  C   -0.003715  -0.168869   0.091160   0.277154   5.238493   0.283422
    12  C    0.033049   0.086580  -0.208220   0.092003   0.283422   5.276691
    13  C   -0.027705   0.211380   0.066527  -0.180681   0.066385   0.250058
    14  H    0.010050   0.000362   0.000806  -0.000051   0.000022  -0.000086
    15  H    0.005389  -0.009730   0.002699   0.000177   0.000074  -0.000089
    16  H   -0.021806   0.013502  -0.012182   0.001955  -0.001128   0.001996
    17  H   -0.003403  -0.000692  -0.000146  -0.000007   0.000002   0.000011
    18  H   -0.010980  -0.000486   0.000810   0.000016   0.000004  -0.000016
    19  H    0.013151  -0.001715  -0.000096  -0.000003   0.000000  -0.000001
    20  H    0.020273  -0.003270  -0.001186   0.000053  -0.000073   0.000266
    21  H   -0.045361   0.016593   0.006834   0.000155   0.000179  -0.001852
    22  H    0.060839  -0.030518  -0.002759   0.000232  -0.000227   0.001711
    23  H   -0.011049   0.003921   0.000260  -0.000011   0.000010  -0.000124
    24  H    0.000297  -0.000248  -0.000009   0.000001  -0.000001   0.000034
    25  H    0.402247  -0.040114   0.001329  -0.000520  -0.000041   0.000589
    26  H    0.431170  -0.059140  -0.000218   0.002034  -0.000451   0.000192
    27  H   -0.011399  -0.074149   0.455184  -0.061677   0.017042  -0.006428
    28  H   -0.000922   0.018545  -0.060549   0.436630  -0.064234   0.015262
    29  H   -0.000162  -0.006067   0.019492  -0.065853   0.439918  -0.063705
    30  H   -0.000797   0.017222  -0.002517   0.014689  -0.062638   0.434443
    31  H   -0.023456  -0.054345   0.023026  -0.006353   0.016681  -0.058104
              13         14         15         16         17         18
     1  C   -0.000310   0.386339   0.387704   0.393049   0.009013  -0.007311
     2  N   -0.016869  -0.015272  -0.022027  -0.015888  -0.013825  -0.016084
     3  C   -0.001509  -0.005114  -0.008700   0.008258   0.388243   0.390460
     4  C    0.010219  -0.011066   0.010205  -0.002498  -0.022156   0.009804
     5  C    0.007422  -0.000326  -0.000623   0.000335   0.011529  -0.000194
     6  O   -0.006404  -0.000029   0.000008  -0.000046   0.000055  -0.000006
     7  C   -0.027705   0.010050   0.005389  -0.021806  -0.003403  -0.010980
     8  C    0.211380   0.000362  -0.009730   0.013502  -0.000692  -0.000486
     9  C    0.066527   0.000806   0.002699  -0.012182  -0.000146   0.000810
    10  C   -0.180681  -0.000051   0.000177   0.001955  -0.000007   0.000016
    11  C    0.066385   0.000022   0.000074  -0.001128   0.000002   0.000004
    12  C    0.250058  -0.000086  -0.000089   0.001996   0.000011  -0.000016
    13  C    5.327484   0.000096  -0.000093  -0.000881   0.000612  -0.000135
    14  H    0.000096   0.463092  -0.017381  -0.017593   0.000065  -0.000442
    15  H   -0.000093  -0.017381   0.461217  -0.020335   0.000046   0.003614
    16  H   -0.000881  -0.017593  -0.020335   0.456801  -0.000360   0.000009
    17  H    0.000612   0.000065   0.000046  -0.000360   0.462801  -0.019325
    18  H   -0.000135  -0.000442   0.003614   0.000009  -0.019325   0.469287
    19  H    0.000018   0.002787   0.000185   0.000032  -0.018122  -0.018918
    20  H    0.001195   0.005075   0.000265  -0.001739   0.001042  -0.000179
    21  H   -0.010882  -0.000923  -0.000099   0.003858  -0.000252  -0.000214
    22  H    0.012794   0.000019   0.000016   0.000046   0.001128  -0.000074
    23  H   -0.001163   0.000034   0.000013  -0.000027  -0.004973   0.000321
    24  H    0.000094   0.000000  -0.000001   0.000001   0.000034  -0.000002
    25  H    0.000538  -0.000307   0.000291  -0.000208   0.004587  -0.001235
    26  H    0.002436  -0.000052   0.000995   0.001498  -0.001632   0.005047
    27  H    0.019780   0.000129  -0.000319  -0.001063   0.000010  -0.000024
    28  H   -0.002758  -0.000001  -0.000011   0.000051  -0.000000  -0.000000
    29  H    0.019443   0.000000   0.000000  -0.000009  -0.000000   0.000000
    30  H   -0.057222  -0.000000  -0.000000   0.000013   0.000000  -0.000000
    31  H    0.430731   0.000016   0.000020  -0.000198  -0.000112   0.000024
              19         20         21         22         23         24
     1  C   -0.008530  -0.006978  -0.003145  -0.000929  -0.000335   0.000035
     2  N   -0.016335  -0.003207  -0.015690   0.001533  -0.005892  -0.000602
     3  C    0.383386  -0.017349   0.011552  -0.013223   0.016070   0.000056
     4  C   -0.004792   0.332223   0.402775  -0.088707  -0.008049   0.013389
     5  C   -0.004011   0.000369  -0.043695   0.435302   0.388452  -0.032337
     6  O    0.000144   0.016158   0.013383  -0.053382  -0.043218   0.306258
     7  C    0.013151   0.020273  -0.045361   0.060839  -0.011049   0.000297
     8  C   -0.001715  -0.003270   0.016593  -0.030518   0.003921  -0.000248
     9  C   -0.000096  -0.001186   0.006834  -0.002759   0.000260  -0.000009
    10  C   -0.000003   0.000053   0.000155   0.000232  -0.000011   0.000001
    11  C    0.000000  -0.000073   0.000179  -0.000227   0.000010  -0.000001
    12  C   -0.000001   0.000266  -0.001852   0.001711  -0.000124   0.000034
    13  C    0.000018   0.001195  -0.010882   0.012794  -0.001163   0.000094
    14  H    0.002787   0.005075  -0.000923   0.000019   0.000034   0.000000
    15  H    0.000185   0.000265  -0.000099   0.000016   0.000013  -0.000001
    16  H    0.000032  -0.001739   0.003858   0.000046  -0.000027   0.000001
    17  H   -0.018122   0.001042  -0.000252   0.001128  -0.004973   0.000034
    18  H   -0.018918  -0.000179  -0.000214  -0.000074   0.000321  -0.000002
    19  H    0.464016   0.004112  -0.000138   0.001083  -0.002208  -0.000007
    20  H    0.004112   0.462769  -0.016261   0.008715  -0.012707  -0.000651
    21  H   -0.000138  -0.016261   0.445059  -0.006049   0.006290  -0.000686
    22  H    0.001083   0.008715  -0.006049   0.572495  -0.053967  -0.000111
    23  H   -0.002208  -0.012707   0.006290  -0.053967   0.542870  -0.004681
    24  H   -0.000007  -0.000651  -0.000686  -0.000111  -0.004681   0.394989
    25  H   -0.000144  -0.000566   0.002469  -0.008277   0.001983  -0.000061
    26  H    0.000129   0.000079  -0.000698   0.001299  -0.000226   0.000002
    27  H    0.000000  -0.000029   0.000052  -0.000042   0.000003  -0.000000
    28  H    0.000000   0.000000   0.000005   0.000000  -0.000000   0.000000
    29  H   -0.000000  -0.000000   0.000004  -0.000001   0.000000  -0.000000
    30  H    0.000000   0.000002  -0.000002   0.000023  -0.000001   0.000000
    31  H   -0.000015  -0.000577   0.003392  -0.010772   0.001281  -0.000171
              25         26         27         28         29         30
     1  C    0.009020  -0.015700   0.002510   0.000002  -0.000003   0.000011
     2  N   -0.020725  -0.020762  -0.001139  -0.000012   0.000003  -0.000006
     3  C    0.001305  -0.001825  -0.000359  -0.000001  -0.000000  -0.000001
     4  C   -0.015902   0.009220  -0.000137   0.000019  -0.000021  -0.000066
     5  C   -0.002600   0.000456  -0.000028  -0.000001   0.000002   0.000023
     6  O    0.000540  -0.000042   0.000002  -0.000000   0.000001  -0.000057
     7  C    0.402247   0.431170  -0.011399  -0.000922  -0.000162  -0.000797
     8  C   -0.040114  -0.059140  -0.074149   0.018545  -0.006067   0.017222
     9  C    0.001329  -0.000218   0.455184  -0.060549   0.019492  -0.002517
    10  C   -0.000520   0.002034  -0.061677   0.436630  -0.065853   0.014689
    11  C   -0.000041  -0.000451   0.017042  -0.064234   0.439918  -0.062638
    12  C    0.000589   0.000192  -0.006428   0.015262  -0.063705   0.434443
    13  C    0.000538   0.002436   0.019780  -0.002758   0.019443  -0.057222
    14  H   -0.000307  -0.000052   0.000129  -0.000001   0.000000  -0.000000
    15  H    0.000291   0.000995  -0.000319  -0.000011   0.000000  -0.000000
    16  H   -0.000208   0.001498  -0.001063   0.000051  -0.000009   0.000013
    17  H    0.004587  -0.001632   0.000010  -0.000000  -0.000000   0.000000
    18  H   -0.001235   0.005047  -0.000024  -0.000000   0.000000  -0.000000
    19  H   -0.000144   0.000129   0.000000   0.000000  -0.000000   0.000000
    20  H   -0.000566   0.000079  -0.000029   0.000000  -0.000000   0.000002
    21  H    0.002469  -0.000698   0.000052   0.000005   0.000004  -0.000002
    22  H   -0.008277   0.001299  -0.000042   0.000000  -0.000001   0.000023
    23  H    0.001983  -0.000226   0.000003  -0.000000   0.000000  -0.000001
    24  H   -0.000061   0.000002  -0.000000   0.000000  -0.000000   0.000000
    25  H    0.414154  -0.009208   0.000222   0.000014   0.000001  -0.000007
    26  H   -0.009208   0.418123  -0.000649   0.000006  -0.000002   0.000015
    27  H    0.000222  -0.000649   0.510484  -0.005853  -0.000075   0.000004
    28  H    0.000014   0.000006  -0.005853   0.519443  -0.006896  -0.000138
    29  H    0.000001  -0.000002  -0.000075  -0.006896   0.516331  -0.006665
    30  H   -0.000007   0.000015   0.000004  -0.000138  -0.006665   0.518733
    31  H   -0.000434  -0.000363   0.000187   0.000002  -0.000087  -0.006024
              31
     1  C   -0.000646
     2  N   -0.000849
     3  C    0.000062
     4  C    0.009047
     5  C   -0.006682
     6  O    0.008297
     7  C   -0.023456
     8  C   -0.054345
     9  C    0.023026
    10  C   -0.006353
    11  C    0.016681
    12  C   -0.058104
    13  C    0.430731
    14  H    0.000016
    15  H    0.000020
    16  H   -0.000198
    17  H   -0.000112
    18  H    0.000024
    19  H   -0.000015
    20  H   -0.000577
    21  H    0.003392
    22  H   -0.010772
    23  H    0.001281
    24  H   -0.000171
    25  H   -0.000434
    26  H   -0.000363
    27  H    0.000187
    28  H    0.000002
    29  H   -0.000087
    30  H   -0.006024
    31  H    0.506898
 Mulliken charges:
               1
     1  C   -0.317021
     2  N   -0.181352
     3  C   -0.290507
     4  C   -0.209700
     5  C   -0.216504
     6  O   -0.420055
     7  C   -0.376727
     8  C   -0.005452
     9  C   -0.107109
    10  C   -0.129992
    11  C   -0.126765
    12  C   -0.139224
    13  C   -0.120599
    14  H    0.199752
    15  H    0.206490
    16  H    0.214557
    17  H    0.205829
    18  H    0.196230
    19  H    0.205993
    20  H    0.212179
    21  H    0.233345
    22  H    0.171804
    23  H    0.187122
    24  H    0.324379
    25  H    0.261061
    26  H    0.238266
    27  H    0.157761
    28  H    0.151394
    29  H    0.154351
    30  H    0.150965
    31  H    0.169527
 Sum of Mulliken charges =   1.00000
 Mulliken charges with hydrogens summed into heavy atoms:
               1
     1  C    0.303779
     2  N   -0.181352
     3  C    0.317545
     4  C    0.235825
     5  C    0.142423
     6  O   -0.095676
     7  C    0.122600
     8  C   -0.005452
     9  C    0.050652
    10  C    0.021401
    11  C    0.027586
    12  C    0.011741
    13  C    0.048928
 Electronic spatial extent (au):  <R**2>=           2746.4850
 Charge=              1.0000 electrons
 Dipole moment (field-independent basis, Debye):
    X=             -6.9527    Y=             -4.5317    Z=             -1.3637  Tot=              8.4105
 Quadrupole moment (field-independent basis, Debye-Ang):
   XX=            -49.2296   YY=            -58.3903   ZZ=            -75.4232
   XY=              2.5449   XZ=              6.6742   YZ=             -5.6025
 Traceless Quadrupole moment (field-independent basis, Debye-Ang):
   XX=             11.7847   YY=              2.6241   ZZ=            -14.4088
   XY=              2.5449   XZ=              6.6742   YZ=             -5.6025
 Octapole moment (field-independent basis, Debye-Ang**2):
  XXX=            -54.7281  YYY=             -0.2530  ZZZ=              1.6740  XYY=            -30.5254
  XXY=              8.1805  XXZ=              6.5730  XZZ=            -22.8430  YZZ=             -9.1437
  YYZ=            -12.0472  XYZ=              9.8850
 Hexadecapole moment (field-independent basis, Debye-Ang**3):
 XXXX=          -1943.6080 YYYY=           -837.7223 ZZZZ=           -298.4599 XXXY=            -37.3151
 XXXZ=             86.3462 YYYX=            -65.9656 YYYZ=            -31.5034 ZZZX=              0.4501
 ZZZY=             -6.1188 XXYY=           -407.7718 XXZZ=           -440.7109 YYZZ=           -221.2557
 XXYZ=            -22.3955 YYXZ=             30.8269 ZZXY=              7.7499
 N-N= 8.328736974736D+02 E-N=-2.951372761857D+03  KE= 5.571146445929D+02
 Unable to Open any file for archive entry.
 1\1\GINC-TCN1721\SP\RBP86\TZVP\C11H18N1O1(1+)\ELENAA\23-Feb-2021\0\\# 
 BP86/TZVP SCRF=COSMORS geom=CHECKPOINT guess=CHECKPOINT\\COSMO-file fo
 r #NEUNOKQNYOCZNP-UHFFFAOYSA-N\\1,1\C,0,-2.6143745227,-0.8914848473,2.
 2589283977\N,0,-1.6531889081,-1.2234436733,1.1424230505\C,0,-2.3880164
 149,-1.1457108358,-0.1747192417\C,0,-0.5270288948,-0.2045078774,1.1861
 407868\C,0,0.4632390822,-0.2802723602,0.0244693608\O,0,1.5836796711,0.
 4990955186,0.4644639004\C,0,-1.1331877486,-2.6785005855,1.3147411733\C
 ,0,-0.3887086538,-2.9255360909,2.5967340463\C,0,-1.069969487,-3.396897
 7291,3.7325515559\C,0,-0.3816544891,-3.626177296,4.9274226666\C,0,0.99
 7552299,-3.3946589826,4.9966805312\C,0,1.6883211046,-2.943729722,3.865
 2196438\C,0,1.0000443989,-2.7157942561,2.6701637416\H,0,-3.0376026916,
 0.1006508123,2.0686187209\H,0,-3.4100147987,-1.6442434147,2.2757752406
 \H,0,-2.0694713696,-0.8954892133,3.2083153685\H,0,-1.7266077568,-1.482
 1308845,-0.9797586893\H,0,-3.2672936311,-1.7968830786,-0.1232876658\H,
 0,-2.6961438787,-0.1079949829,-0.3434243988\H,0,-1.0009239054,0.784734
 4988,1.2161481585\H,0,0.0067640218,-0.3623530889,2.1320397201\H,0,0.76
 34072573,-1.3232268992,-0.1831433152\H,0,0.021326656,0.1372315358,-0.8
 953648418\H,0,2.1763734911,0.6214446633,-0.298378032\H,0,-0.5063256517
 ,-2.8781612047,0.4380660461\H,0,-2.030788521,-3.3058162177,1.243221250
 3\H,0,-2.1436151476,-3.5910262603,3.6791461514\H,0,-0.9215903873,-3.99
 15323731,5.802911584\H,0,1.5356812225,-3.5744091699,5.9294918676\H,0,2
 .7658218389,-2.7754314517,3.9105673121\H,0,1.5494758151,-2.3758645331,
 1.7893259098\\Version=ES64L-G16RevC.01\State=1-A\HF=-559.9956317\RMSD=
 4.223e-09\Dipole=-2.2364599,0.7049066,-2.3346363\Quadrupole=3.6787047,
 -10.0716197,6.392915,-1.9698505,1.3268021,-7.7238563\PG=C01 [X(C11H18N
 1O1)]\\@
 The archive entry for this job was punched.


 WHEN HAVING A MEETING OF THE MINDS,
 MAKE SURE YOU HAVE THE EQUIPMENT FOR IT.
 Job cpu time:       0 days  0 hours 13 minutes 46.5 seconds.
 Elapsed time:       0 days  0 hours  0 minutes 26.5 seconds.
 File lengths (MBytes):  RWF=    100 Int=      0 D2E=      0 Chk=     13 Scr=      1
 Normal termination of Gaussian 16 at Tue Feb 23 00:18:17 2021.
