 Entering Gaussian System, Link 0=g16
 Input=NGSWKAQJJWESNS-ZZXKWVIFSA-N.gjf
 Output=NGSWKAQJJWESNS-ZZXKWVIFSA-N.log
 Initial command:
 /sw/arch/RedHatEnterpriseServer7/EB_production/2019/software/Gaussian/g16.c01/l1.exe "/scratch-local/elenaa.9715243/Gau-30495.inp" -scrdir="/scratch-local/elenaa.9715243/"
 Entering Link 1 = /sw/arch/RedHatEnterpriseServer7/EB_production/2019/software/Gaussian/g16.c01/l1.exe PID=     30496.
  
 Copyright (c) 1988-2019, Gaussian, Inc.  All Rights Reserved.
  
 This is part of the Gaussian(R) 16 program.  It is based on
 the Gaussian(R) 09 system (copyright 2009, Gaussian, Inc.),
 the Gaussian(R) 03 system (copyright 2003, Gaussian, Inc.),
 the Gaussian(R) 98 system (copyright 1998, Gaussian, Inc.),
 the Gaussian(R) 94 system (copyright 1995, Gaussian, Inc.),
 the Gaussian 92(TM) system (copyright 1992, Gaussian, Inc.),
 the Gaussian 90(TM) system (copyright 1990, Gaussian, Inc.),
 the Gaussian 88(TM) system (copyright 1988, Gaussian, Inc.),
 the Gaussian 86(TM) system (copyright 1986, Carnegie Mellon
 University), and the Gaussian 82(TM) system (copyright 1983,
 Carnegie Mellon University). Gaussian is a federally registered
 trademark of Gaussian, Inc.
  
 This software contains proprietary and confidential information,
 including trade secrets, belonging to Gaussian, Inc.
  
 This software is provided under written license and may be
 used, copied, transmitted, or stored only in accord with that
 written license.
  
 The following legend is applicable only to US Government
 contracts under FAR:
  
                    RESTRICTED RIGHTS LEGEND
  
 Use, reproduction and disclosure by the US Government is
 subject to restrictions as set forth in subparagraphs (a)
 and (c) of the Commercial Computer Software - Restricted
 Rights clause in FAR 52.227-19.
  
 Gaussian, Inc.
 340 Quinnipiac St., Bldg. 40, Wallingford CT 06492
  
  
 ---------------------------------------------------------------
 Warning -- This program may not be used in any manner that
 competes with the business of Gaussian, Inc. or will provide
 assistance to any competitor of Gaussian, Inc.  The licensee
 of this program is prohibited from giving any competitor of
 Gaussian, Inc. access to this program.  By using this program,
 the user acknowledges that Gaussian, Inc. is engaged in the
 business of creating and licensing software in the field of
 computational chemistry and represents and warrants to the
 licensee that it is not a competitor of Gaussian, Inc. and that
 it will not use this program in any manner prohibited above.
 ---------------------------------------------------------------
  

 Cite this work as:
 Gaussian 16, Revision C.01,
 M. J. Frisch, G. W. Trucks, H. B. Schlegel, G. E. Scuseria, 
 M. A. Robb, J. R. Cheeseman, G. Scalmani, V. Barone, 
 G. A. Petersson, H. Nakatsuji, X. Li, M. Caricato, A. V. Marenich, 
 J. Bloino, B. G. Janesko, R. Gomperts, B. Mennucci, H. P. Hratchian, 
 J. V. Ortiz, A. F. Izmaylov, J. L. Sonnenberg, D. Williams-Young, 
 F. Ding, F. Lipparini, F. Egidi, J. Goings, B. Peng, A. Petrone, 
 T. Henderson, D. Ranasinghe, V. G. Zakrzewski, J. Gao, N. Rega, 
 G. Zheng, W. Liang, M. Hada, M. Ehara, K. Toyota, R. Fukuda, 
 J. Hasegawa, M. Ishida, T. Nakajima, Y. Honda, O. Kitao, H. Nakai, 
 T. Vreven, K. Throssell, J. A. Montgomery, Jr., J. E. Peralta, 
 F. Ogliaro, M. J. Bearpark, J. J. Heyd, E. N. Brothers, K. N. Kudin, 
 V. N. Staroverov, T. A. Keith, R. Kobayashi, J. Normand, 
 K. Raghavachari, A. P. Rendell, J. C. Burant, S. S. Iyengar, 
 J. Tomasi, M. Cossi, J. M. Millam, M. Klene, C. Adamo, R. Cammi, 
 J. W. Ochterski, R. L. Martin, K. Morokuma, O. Farkas, 
 J. B. Foresman, and D. J. Fox, Gaussian, Inc., Wallingford CT, 2019.
 
 ******************************************
 Gaussian 16:  ES64L-G16RevC.01  3-Jul-2019
                22-Feb-2021 
 ******************************************
 %chk=NGSWKAQJJWESNS-ZZXKWVIFSA-N.chk
 %NProcShared=32
 Will use up to   32 processors via shared memory.
 -------------------------------------------------------------
 #P BP86/TZVP EmpiricalDispersion=GD3 SCRF=(Solvent=Water) Opt
 -------------------------------------------------------------
 1/18=20,19=15,26=3,38=1/1,3;
 2/9=110,12=2,17=6,18=5,40=1/2;
 3/5=19,7=101,11=2,25=1,30=1,70=2201,71=1,72=1,74=404,124=31/1,2,3;
 4//1;
 5/5=2,38=5,53=1/2;
 6/7=2,8=2,9=2,10=2,28=1/1;
 7//1,2,3,16;
 1/18=20,19=15,26=3/3(2);
 2/9=110/2;
 99//99;
 2/9=110/2;
 3/5=19,7=101,11=2,25=1,30=1,70=2205,71=1,72=1,74=404,124=31/1,2,3;
 4/5=5,16=3,69=1/1;
 5/5=2,38=5,53=1/2;
 7//1,2,3,16;
 1/18=20,19=15,26=3/3(-5);
 2/9=110/2;
 6/7=2,8=2,9=2,10=2,19=2,28=1/1;
 99/9=1/99;
 Leave Link    1 at Mon Feb 22 21:15:05 2021, MaxMem=           0 cpu:               1.6 elap:               0.1
 (Enter /sw/arch/RedHatEnterpriseServer7/EB_production/2019/software/Gaussian/g16.c01/l101.exe)
 -------------------------------------
 Particle #NGSWKAQJJWESNS-ZZXKWVIFSA-N
 -------------------------------------
 Symbolic Z-matrix:
 Charge =  0 Multiplicity = 1
 O                    -0.63581   4.52171   5.20311 
 C                    -0.75762   3.50186   4.48644 
 O                    -0.46882   3.62449   3.16755 
 C                    -1.17213   2.30939   5.04969 
 C                    -1.31238   1.15467   4.36999 
 C                    -1.71269  -0.07092   4.91769 
 C                    -1.5741   -0.38953   6.29491 
 C                    -1.97334  -1.6395    6.79804 
 C                    -2.5172   -2.60755   5.93521 
 O                    -2.90114  -3.81884   6.4111 
 C                    -2.66615  -2.31495   4.56776 
 C                    -2.26505  -1.06231   4.06624 
 H                    -0.17139   4.48539   2.80524 
 H                    -1.37984   2.3307    6.0212 
 H                    -1.1286    1.16965   3.38938 
 H                    -1.17011   0.275     6.95675 
 H                    -1.8629   -1.84263   7.79411 
 H                    -2.64964  -3.8227    7.35863 
 H                    -3.06591  -3.01296   3.93618 
 H                    -2.38893  -0.88179   3.06501 
 
 ITRead=  0  0  0  0  0  0  0  0  0  0  0  0  0  0  0  0  0  0  0  0
 MicOpt= -1 -1 -1 -1 -1 -1 -1 -1 -1 -1 -1 -1 -1 -1 -1 -1 -1 -1 -1 -1
 NAtoms=     20 NQM=       20 NQMF=       0 NMMI=      0 NMMIF=      0
                NMic=       0 NMicF=      0.
                    Isotopes and Nuclear Properties:
 (Nuclear quadrupole moments (NQMom) in fm**2, nuclear magnetic moments (NMagM)
  in nuclear magnetons)

  Atom         1           2           3           4           5           6           7           8           9          10
 IAtWgt=          16          12          16          12          12          12          12          12          12          16
 AtmWgt=  15.9949146  12.0000000  15.9949146  12.0000000  12.0000000  12.0000000  12.0000000  12.0000000  12.0000000  15.9949146
 NucSpn=           0           0           0           0           0           0           0           0           0           0
 AtZEff=  -0.0000000  -0.0000000  -0.0000000  -0.0000000  -0.0000000  -0.0000000  -0.0000000  -0.0000000  -0.0000000  -0.0000000
 NQMom=    0.0000000   0.0000000   0.0000000   0.0000000   0.0000000   0.0000000   0.0000000   0.0000000   0.0000000   0.0000000
 NMagM=    0.0000000   0.0000000   0.0000000   0.0000000   0.0000000   0.0000000   0.0000000   0.0000000   0.0000000   0.0000000
 AtZNuc=   8.0000000   6.0000000   8.0000000   6.0000000   6.0000000   6.0000000   6.0000000   6.0000000   6.0000000   8.0000000

  Atom        11          12          13          14          15          16          17          18          19          20
 IAtWgt=          12          12           1           1           1           1           1           1           1           1
 AtmWgt=  12.0000000  12.0000000   1.0078250   1.0078250   1.0078250   1.0078250   1.0078250   1.0078250   1.0078250   1.0078250
 NucSpn=           0           0           1           1           1           1           1           1           1           1
 AtZEff=  -0.0000000  -0.0000000  -0.0000000  -0.0000000  -0.0000000  -0.0000000  -0.0000000  -0.0000000  -0.0000000  -0.0000000
 NQMom=    0.0000000   0.0000000   0.0000000   0.0000000   0.0000000   0.0000000   0.0000000   0.0000000   0.0000000   0.0000000
 NMagM=    0.0000000   0.0000000   2.7928460   2.7928460   2.7928460   2.7928460   2.7928460   2.7928460   2.7928460   2.7928460
 AtZNuc=   6.0000000   6.0000000   1.0000000   1.0000000   1.0000000   1.0000000   1.0000000   1.0000000   1.0000000   1.0000000
 Leave Link  101 at Mon Feb 22 21:15:06 2021, MaxMem=   104857600 cpu:               2.9 elap:               0.1
 (Enter /sw/arch/RedHatEnterpriseServer7/EB_production/2019/software/Gaussian/g16.c01/l103.exe)

 GradGradGradGradGradGradGradGradGradGradGradGradGradGradGradGradGradGrad
 Berny optimization.
 Initialization pass.
                           ----------------------------
                           !    Initial Parameters    !
                           ! (Angstroms and Degrees)  !
 --------------------------                            --------------------------
 ! Name  Definition              Value          Derivative Info.                !
 --------------------------------------------------------------------------------
 ! R1    R(1,2)                  1.2524         estimate D2E/DX2                !
 ! R2    R(2,3)                  1.3557         estimate D2E/DX2                !
 ! R3    R(2,4)                  1.3824         estimate D2E/DX2                !
 ! R4    R(3,13)                 0.9802         estimate D2E/DX2                !
 ! R5    R(4,5)                  1.3472         estimate D2E/DX2                !
 ! R6    R(4,14)                 0.9937         estimate D2E/DX2                !
 ! R7    R(5,6)                  1.4008         estimate D2E/DX2                !
 ! R8    R(5,15)                 0.9978         estimate D2E/DX2                !
 ! R9    R(6,7)                  1.4204         estimate D2E/DX2                !
 ! R10   R(6,12)                 1.4188         estimate D2E/DX2                !
 ! R11   R(7,8)                  1.4053         estimate D2E/DX2                !
 ! R12   R(7,16)                 1.0212         estimate D2E/DX2                !
 ! R13   R(8,9)                  1.4062         estimate D2E/DX2                !
 ! R14   R(8,17)                 1.0226         estimate D2E/DX2                !
 ! R15   R(9,10)                 1.3569         estimate D2E/DX2                !
 ! R16   R(9,11)                 1.4063         estimate D2E/DX2                !
 ! R17   R(10,18)                0.9803         estimate D2E/DX2                !
 ! R18   R(11,12)                1.4077         estimate D2E/DX2                !
 ! R19   R(11,19)                1.0227         estimate D2E/DX2                !
 ! R20   R(12,20)                1.0249         estimate D2E/DX2                !
 ! A1    A(1,2,3)              117.5367         estimate D2E/DX2                !
 ! A2    A(1,2,4)              119.8966         estimate D2E/DX2                !
 ! A3    A(3,2,4)              122.5667         estimate D2E/DX2                !
 ! A4    A(2,3,13)             120.2422         estimate D2E/DX2                !
 ! A5    A(2,4,5)              124.402          estimate D2E/DX2                !
 ! A6    A(2,4,14)             116.2649         estimate D2E/DX2                !
 ! A7    A(5,4,14)             119.3322         estimate D2E/DX2                !
 ! A8    A(4,5,6)              125.6181         estimate D2E/DX2                !
 ! A9    A(4,5,15)             117.6315         estimate D2E/DX2                !
 ! A10   A(6,5,15)             116.745          estimate D2E/DX2                !
 ! A11   A(5,6,7)              123.1942         estimate D2E/DX2                !
 ! A12   A(5,6,12)             119.2072         estimate D2E/DX2                !
 ! A13   A(7,6,12)             117.5901         estimate D2E/DX2                !
 ! A14   A(6,7,8)              121.2609         estimate D2E/DX2                !
 ! A15   A(6,7,16)             121.4023         estimate D2E/DX2                !
 ! A16   A(8,7,16)             117.3325         estimate D2E/DX2                !
 ! A17   A(7,8,9)              120.1663         estimate D2E/DX2                !
 ! A18   A(7,8,17)             119.6532         estimate D2E/DX2                !
 ! A19   A(9,8,17)             120.18           estimate D2E/DX2                !
 ! A20   A(8,9,10)             120.5833         estimate D2E/DX2                !
 ! A21   A(8,9,11)             119.6279         estimate D2E/DX2                !
 ! A22   A(10,9,11)            119.7886         estimate D2E/DX2                !
 ! A23   A(9,10,18)            105.6589         estimate D2E/DX2                !
 ! A24   A(9,11,12)            120.0928         estimate D2E/DX2                !
 ! A25   A(9,11,19)            119.9927         estimate D2E/DX2                !
 ! A26   A(12,11,19)           119.9146         estimate D2E/DX2                !
 ! A27   A(6,12,11)            121.2606         estimate D2E/DX2                !
 ! A28   A(6,12,20)            120.681          estimate D2E/DX2                !
 ! A29   A(11,12,20)           118.0572         estimate D2E/DX2                !
 ! D1    D(1,2,3,13)             0.3781         estimate D2E/DX2                !
 ! D2    D(4,2,3,13)          -179.5601         estimate D2E/DX2                !
 ! D3    D(1,2,4,5)           -178.8589         estimate D2E/DX2                !
 ! D4    D(1,2,4,14)             1.5012         estimate D2E/DX2                !
 ! D5    D(3,2,4,5)              1.0778         estimate D2E/DX2                !
 ! D6    D(3,2,4,14)          -178.562          estimate D2E/DX2                !
 ! D7    D(2,4,5,6)            179.0881         estimate D2E/DX2                !
 ! D8    D(2,4,5,15)            -1.7835         estimate D2E/DX2                !
 ! D9    D(14,4,5,6)            -1.2824         estimate D2E/DX2                !
 ! D10   D(14,4,5,15)          177.8461         estimate D2E/DX2                !
 ! D11   D(4,5,6,7)            -23.0564         estimate D2E/DX2                !
 ! D12   D(4,5,6,12)           158.03           estimate D2E/DX2                !
 ! D13   D(15,5,6,7)           157.8082         estimate D2E/DX2                !
 ! D14   D(15,5,6,12)          -21.1054         estimate D2E/DX2                !
 ! D15   D(5,6,7,8)           -179.1358         estimate D2E/DX2                !
 ! D16   D(5,6,7,16)             0.0883         estimate D2E/DX2                !
 ! D17   D(12,6,7,8)            -0.2058         estimate D2E/DX2                !
 ! D18   D(12,6,7,16)          179.0183         estimate D2E/DX2                !
 ! D19   D(5,6,12,11)          179.2016         estimate D2E/DX2                !
 ! D20   D(5,6,12,20)           -1.2078         estimate D2E/DX2                !
 ! D21   D(7,6,12,11)            0.2274         estimate D2E/DX2                !
 ! D22   D(7,6,12,20)          179.818          estimate D2E/DX2                !
 ! D23   D(6,7,8,9)              0.2744         estimate D2E/DX2                !
 ! D24   D(6,7,8,17)          -179.9628         estimate D2E/DX2                !
 ! D25   D(16,7,8,9)          -178.9801         estimate D2E/DX2                !
 ! D26   D(16,7,8,17)            0.7826         estimate D2E/DX2                !
 ! D27   D(7,8,9,10)           179.7693         estimate D2E/DX2                !
 ! D28   D(7,8,9,11)            -0.3551         estimate D2E/DX2                !
 ! D29   D(17,8,9,10)            0.0078         estimate D2E/DX2                !
 ! D30   D(17,8,9,11)          179.8834         estimate D2E/DX2                !
 ! D31   D(8,9,10,18)           -4.0295         estimate D2E/DX2                !
 ! D32   D(11,9,10,18)         176.0951         estimate D2E/DX2                !
 ! D33   D(8,9,11,12)            0.3761         estimate D2E/DX2                !
 ! D34   D(8,9,11,19)         -179.6563         estimate D2E/DX2                !
 ! D35   D(10,9,11,12)        -179.7473         estimate D2E/DX2                !
 ! D36   D(10,9,11,19)           0.2203         estimate D2E/DX2                !
 ! D37   D(9,11,12,6)           -0.3177         estimate D2E/DX2                !
 ! D38   D(9,11,12,20)        -179.9187         estimate D2E/DX2                !
 ! D39   D(19,11,12,6)         179.7147         estimate D2E/DX2                !
 ! D40   D(19,11,12,20)          0.1137         estimate D2E/DX2                !
 --------------------------------------------------------------------------------
 Trust Radius=3.00D-01 FncErr=1.00D-07 GrdErr=1.00D-06 EigMax=2.50D+02 EigMin=1.00D-04
 Number of steps in this run=     99 maximum allowed number of steps=    120.
 GradGradGradGradGradGradGradGradGradGradGradGradGradGradGradGradGradGrad

 Leave Link  103 at Mon Feb 22 21:15:06 2021, MaxMem=   104857600 cpu:               0.3 elap:               0.0
 (Enter /sw/arch/RedHatEnterpriseServer7/EB_production/2019/software/Gaussian/g16.c01/l202.exe)
                          Input orientation:                          
 ---------------------------------------------------------------------
 Center     Atomic      Atomic             Coordinates (Angstroms)
 Number     Number       Type             X           Y           Z
 ---------------------------------------------------------------------
      1          8           0       -0.635810    4.521710    5.203110
      2          6           0       -0.757620    3.501860    4.486440
      3          8           0       -0.468820    3.624490    3.167550
      4          6           0       -1.172130    2.309390    5.049690
      5          6           0       -1.312380    1.154670    4.369990
      6          6           0       -1.712690   -0.070920    4.917690
      7          6           0       -1.574100   -0.389530    6.294910
      8          6           0       -1.973340   -1.639500    6.798040
      9          6           0       -2.517200   -2.607550    5.935210
     10          8           0       -2.901140   -3.818840    6.411100
     11          6           0       -2.666150   -2.314950    4.567760
     12          6           0       -2.265050   -1.062310    4.066240
     13          1           0       -0.171390    4.485390    2.805240
     14          1           0       -1.379840    2.330700    6.021200
     15          1           0       -1.128600    1.169650    3.389380
     16          1           0       -1.170110    0.275000    6.956750
     17          1           0       -1.862900   -1.842630    7.794110
     18          1           0       -2.649640   -3.822700    7.358630
     19          1           0       -3.065910   -3.012960    3.936180
     20          1           0       -2.388930   -0.881790    3.065010
 ---------------------------------------------------------------------
                    Distance matrix (angstroms):
                    1          2          3          4          5
     1  O    0.000000
     2  C    1.252417   0.000000
     3  O    2.230783   1.355697   0.000000
     4  C    2.281565   1.382409   2.401371   0.000000
     5  C    3.533949   2.414668   2.873581   1.347234   0.000000
     6  C    4.725821   3.723291   4.273904   2.444485   1.400819
     7  C    5.117880   4.368080   5.207147   2.999387   2.481606
     8  C    6.503330   5.766719   6.569142   4.392311   3.760277
     9  C    7.409585   6.520732   7.119981   5.173940   4.249212
    10  O    8.726725   7.867124   8.475846   6.511384   5.605898
    11  C    7.160019   6.122449   6.485815   4.883531   3.729621
    12  C    5.926903   4.824993   5.099037   3.678316   2.432045
    13  H    2.442700   2.034067   0.980246   3.282379   3.852791
    14  H    2.454257   2.028364   3.263000   0.993695   2.028322
    15  H    3.843015   2.603914   2.551619   2.014332   0.997795
    16  H    4.625503   4.084753   5.105774   2.788481   2.735944
    17  H    6.980247   6.381685   7.296432   5.024766   4.583828
    18  H    8.850478   8.091872   8.819397   6.716902   5.957722
    19  H    8.017590   6.933532   7.168780   5.757926   4.542268
    20  H    6.069820   4.888560   4.899377   3.950087   2.647471
                    6          7          8          9         10
     6  C    0.000000
     7  C    1.420371   0.000000
     8  C    2.462539   1.405332   0.000000
     9  C    2.849048   2.436890   1.406193   0.000000
    10  O    4.205900   3.678954   2.400012   1.356873   0.000000
    11  C    2.463170   2.807644   2.431125   1.406314   2.390566
    12  C    1.418775   2.428377   2.807307   2.438113   3.674430
    13  H    5.253381   6.157129   7.530189   8.099959   9.455897
    14  H    2.663889   2.740859   4.088791   5.068264   6.346906
    15  H    2.053267   3.327404   4.497096   4.762006   6.095713
    16  H    2.138181   1.021195   2.082229   3.341750   4.478139
    17  H    3.381614   2.107725   1.022553   2.113935   2.626036
    18  H    4.572955   3.751659   2.353297   1.876234   0.980347
    19  H    3.383809   3.830338   3.357133   2.112241   2.608030
    20  H    2.132424   3.367272   3.831756   3.351529   4.481622
                   11         12         13         14         15
    11  C    0.000000
    12  C    1.407661   0.000000
    13  H    7.454859   6.062220   0.000000
    14  H    5.034793   4.014721   4.055298   0.000000
    15  H    3.986863   2.594476   3.500229   2.887496   0.000000
    16  H    3.827956   3.367839   5.996654   2.268291   3.678077
    17  H    3.358218   3.829835   8.233703   4.559961   5.386527
    18  H    3.172150   4.313640   9.792826   6.423818   6.556834
    19  H    1.022702   2.112659   8.116805   5.978699   4.641809
    20  H    2.095007   1.024888   5.813053   4.480783   2.429414
                   16         17         18         19         20
    16  H    0.000000
    17  H    2.380228   0.000000
    18  H    4.375118   2.174691   0.000000
    19  H    4.850627   4.207200   3.541486   0.000000
    20  H    4.239024   4.854308   5.210767   2.399818   0.000000
 Stoichiometry    C9H8O3
 Framework group  C1[X(C9H8O3)]
 Deg. of freedom    54
 Full point group                 C1      NOp   1
 Largest Abelian subgroup         C1      NOp   1
 Largest concise Abelian subgroup C1      NOp   1
                         Standard orientation:                         
 ---------------------------------------------------------------------
 Center     Atomic      Atomic             Coordinates (Angstroms)
 Number     Number       Type             X           Y           Z
 ---------------------------------------------------------------------
      1          8           0       -4.175758   -1.120809   -0.286725
      2          6           0       -3.363770   -0.195158   -0.057829
      3          8           0       -3.872539    1.020020    0.262188
      4          6           0       -2.004695   -0.435854   -0.135522
      5          6           0       -1.053160    0.484845    0.113344
      6          6           0        0.329174    0.264404    0.059922
      7          6           0        0.917776   -1.020472    0.201686
      8          6           0        2.311866   -1.192706    0.159215
      9          6           0        3.155882   -0.082447   -0.020628
     10          8           0        4.503236   -0.238419   -0.058260
     11          6           0        2.596682    1.199785   -0.165189
     12          6           0        1.199981    1.369656   -0.121831
     13          1           0       -4.842612    1.151071    0.313821
     14          1           0       -1.735321   -1.355215   -0.399421
     15          1           0       -1.351989    1.408408    0.344271
     16          1           0        0.346661   -1.853923    0.350101
     17          1           0        2.709344   -2.129065    0.263414
     18          1           0        4.664903   -1.187900    0.124578
     19          1           0        3.205078    2.010452   -0.301542
     20          1           0        0.826006    2.317513   -0.231854
 ---------------------------------------------------------------------
 Rotational constants (GHZ):           3.5464544           0.3590283           0.3281199
 Leave Link  202 at Mon Feb 22 21:15:06 2021, MaxMem=   104857600 cpu:               0.9 elap:               0.1
 (Enter /sw/arch/RedHatEnterpriseServer7/EB_production/2019/software/Gaussian/g16.c01/l301.exe)
 Standard basis: TZVP (5D, 7F)
 Ernie: Thresh=  0.10000D-02 Tol=  0.10000D-05 Strict=F.
 There are   288 symmetry adapted cartesian basis functions of A   symmetry.
 There are   276 symmetry adapted basis functions of A   symmetry.
   276 basis functions,   484 primitive gaussians,   288 cartesian basis functions
    43 alpha electrons       43 beta electrons
       nuclear repulsion energy       620.7642479052 Hartrees.
 IExCor=  404 DFT=T Ex=B Corr=P86 ExCW=0 ScaHFX=  0.000000
 ScaDFX=  1.000000  1.000000  1.000000  1.000000 ScalE2=  1.000000  1.000000
 IRadAn=      5 IRanWt=     -1 IRanGd=            0 ICorTp=0 IEmpDi=131
 NAtoms=   20 NActive=   20 NUniq=   20 SFac= 1.00D+00 NAtFMM=   60 NAOKFM=F Big=F
 Integral buffers will be    131072 words long.
 Raffenetti 2 integral format.
 Two-electron integral symmetry is turned on.
 R6Disp:  Grimme-D3 Dispersion energy=       -0.0161430860 Hartrees.
 Nuclear repulsion after empirical dispersion term =      620.7481048193 Hartrees.
 ------------------------------------------------------------------------------
 Polarizable Continuum Model (PCM)
 =================================
 Model                : PCM.
 Atomic radii         : UFF (Universal Force Field).
 Polarization charges : Total charges.
 Charge compensation  : None.
 Solution method      : On-the-fly selection.
 Cavity type          : Scaled VdW (van der Waals Surface) (Alpha=1.100).
 Cavity algorithm     : GePol (No added spheres)
                        Default sphere list used, NSphG=   20.
                        Lebedev-Laikov grids with approx.  5.0 points / Ang**2.
                        Smoothing algorithm: York/Karplus (Gamma=1.0000).
                        Polarization charges: spherical gaussians, with
                                              point-specific exponents (IZeta= 3).
                        Self-potential: point-specific (ISelfS= 7).
                        Self-field    : sphere-specific E.n sum rule (ISelfD= 2).
 1st derivatives      : Analytical E(r).r(x)/FMM algorithm (CHGder, D1EAlg=3).
                        Cavity 1st derivative terms included.
 Solvent              : Water, Eps=  78.355300 Eps(inf)=   1.777849
 ------------------------------------------------------------------------------
 Spheres list:
 ISph  on   Nord     Re0    Alpha      Xe            Ye            Ze
    1   O      1    1.7500  1.100     -4.175758     -1.120809     -0.286725
    2   C      2    1.9255  1.100     -3.363770     -0.195158     -0.057829
    3   O      3    1.7500  1.100     -3.872539      1.020020      0.262188
    4   C      4    1.9255  1.100     -2.004695     -0.435854     -0.135522
    5   C      5    1.9255  1.100     -1.053160      0.484845      0.113344
    6   C      6    1.9255  1.100      0.329174      0.264404      0.059922
    7   C      7    1.9255  1.100      0.917776     -1.020472      0.201686
    8   C      8    1.9255  1.100      2.311866     -1.192706      0.159215
    9   C      9    1.9255  1.100      3.155882     -0.082447     -0.020628
   10   O     10    1.7500  1.100      4.503236     -0.238419     -0.058260
   11   C     11    1.9255  1.100      2.596682      1.199785     -0.165189
   12   C     12    1.9255  1.100      1.199981      1.369656     -0.121831
   13   H     13    1.4430  1.100     -4.842612      1.151071      0.313821
   14   H     14    1.4430  1.100     -1.735321     -1.355215     -0.399421
   15   H     15    1.4430  1.100     -1.351989      1.408408      0.344271
   16   H     16    1.4430  1.100      0.346661     -1.853923      0.350101
   17   H     17    1.4430  1.100      2.709344     -2.129065      0.263414
   18   H     18    1.4430  1.100      4.664903     -1.187900      0.124578
   19   H     19    1.4430  1.100      3.205078      2.010452     -0.301542
   20   H     20    1.4430  1.100      0.826006      2.317513     -0.231854
 ------------------------------------------------------------------------------
 GePol: Number of generator spheres                  =      20
 GePol: Total number of spheres                      =      20
 GePol: Number of exposed spheres                    =      20 (100.00%)
 GePol: Number of points                             =    1743
 GePol: Average weight of points                     =       0.13
 GePol: Minimum weight of points                     =   0.32D-10
 GePol: Maximum weight of points                     =    0.20577
 GePol: Number of points with low weight             =      95
 GePol: Fraction of low-weight points (<1% of avg)   =       5.45%
 GePol: Cavity surface area                          =    225.746 Ang**2
 GePol: Cavity volume                                =    226.290 Ang**3
 Leave Link  301 at Mon Feb 22 21:15:06 2021, MaxMem=   104857600 cpu:               1.9 elap:               0.1
 (Enter /sw/arch/RedHatEnterpriseServer7/EB_production/2019/software/Gaussian/g16.c01/l302.exe)
 NPDir=0 NMtPBC=     1 NCelOv=     1 NCel=       1 NClECP=     1 NCelD=      1
         NCelK=      1 NCelE2=     1 NClLst=     1 CellRange=     0.0.
 One-electron integrals computed using PRISM.
 One-electron integral symmetry used in STVInt
 PrsmSu:  requested number of processors reduced to:  28 ShMem   1 Linda.
 NBasis=   276 RedAO= T EigKep=  1.02D-05  NBF=   276
 NBsUse=   276 1.00D-06 EigRej= -1.00D+00 NBFU=   276
 Precomputing XC quadrature grid using
 IXCGrd= 4 IRadAn=           5 IRanWt=          -1 IRanGd=           0 AccXCQ= 0.00D+00.
 Generated NRdTot=       0 NPtTot=           0 NUsed=           0 NTot=          32
 NSgBfM=   281   281   281   281   281 MxSgAt=    20 MxSgA2=    20.
 Leave Link  302 at Mon Feb 22 21:15:06 2021, MaxMem=   104857600 cpu:               7.5 elap:               0.3
 (Enter /sw/arch/RedHatEnterpriseServer7/EB_production/2019/software/Gaussian/g16.c01/l303.exe)
 DipDrv:  MaxL=1.
 Leave Link  303 at Mon Feb 22 21:15:07 2021, MaxMem=   104857600 cpu:               2.5 elap:               0.1
 (Enter /sw/arch/RedHatEnterpriseServer7/EB_production/2019/software/Gaussian/g16.c01/l401.exe)
 ExpMin= 9.52D-02 ExpMax= 2.70D+04 ExpMxC= 9.22D+02 IAcc=3 IRadAn=         5 AccDes= 0.00D+00
 Harris functional with IExCor=  404 and IRadAn=       5 diagonalized for initial guess.
 HarFok:  IExCor=  404 AccDes= 0.00D+00 IRadAn=         5 IDoV= 1 UseB2=F ITyADJ=14
 ICtDFT=  3500011 ScaDFX=  1.000000  1.000000  1.000000  1.000000
 FoFCou: FMM=F IPFlag=           0 FMFlag=      100000 FMFlg1=           0
         NFxFlg=           0 DoJE=T BraDBF=F KetDBF=T FulRan=T
         wScrn=  0.000000 ICntrl=       500 IOpCl=  0 I1Cent=   200000004 NGrid=           0
         NMat0=    1 NMatS0=      1 NMatT0=    0 NMatD0=    1 NMtDS0=    0 NMtDT0=    0
 Petite list used in FoFCou.
 Harris En= -573.841218819282    
 JPrj=0 DoOrth=F DoCkMO=F.
 Leave Link  401 at Mon Feb 22 21:15:07 2021, MaxMem=   104857600 cpu:              14.0 elap:               0.5
 (Enter /sw/arch/RedHatEnterpriseServer7/EB_production/2019/software/Gaussian/g16.c01/l502.exe)
 Integral symmetry usage will be decided dynamically.
 Closed shell SCF:
 Using DIIS extrapolation, IDIIS=  1040.
 NGot=   104857600 LenX=   104679146 LenY=   104595761
 Requested convergence on RMS density matrix=1.00D-08 within 128 cycles.
 Requested convergence on MAX density matrix=1.00D-06.
 Requested convergence on             energy=1.00D-06.
 No special actions if energy rises.
 Fock matrices will be formed incrementally for  20 cycles.

 Cycle   1  Pass 1  IDiag  1:
 FoFJK:  IHMeth= 1 ICntrl=     500 DoSepK=F KAlg= 0 I1Cent=           0 FoldK=F
 IRaf= 850000000 NMat=       1 IRICut=       1 DoRegI=T DoRafI=F ISym2E= 0 IDoP0=0 IntGTp=1.
 FoFCou: FMM=F IPFlag=           0 FMFlag=      100000 FMFlg1=           0
         NFxFlg=           0 DoJE=T BraDBF=F KetDBF=F FulRan=T
         wScrn=  0.000000 ICntrl=       500 IOpCl=  0 I1Cent=           0 NGrid=           0
         NMat0=    1 NMatS0=      1 NMatT0=    0 NMatD0=    1 NMtDS0=    0 NMtDT0=    0
 Symmetry not used in FoFCou.
 Inv3:  Mode=1 IEnd=     9114147.
 Iteration    1 A*A^-1 deviation from unit magnitude is 3.33D-15 for    553.
 Iteration    1 A*A^-1 deviation from orthogonality  is 1.46D-15 for   1054    190.
 Iteration    1 A^-1*A deviation from unit magnitude is 3.11D-15 for    362.
 Iteration    1 A^-1*A deviation from orthogonality  is 2.04D-15 for    644    309.
 E= -573.362922918754    
 DIIS: error= 3.16D-02 at cycle   1 NSaved=   1.
 NSaved= 1 IEnMin= 1 EnMin= -573.362922918754     IErMin= 1 ErrMin= 3.16D-02
 ErrMax= 3.16D-02  0.00D+00 EMaxC= 1.00D-01 BMatC= 3.19D-01 BMatP= 3.19D-01
 IDIUse=3 WtCom= 6.84D-01 WtEn= 3.16D-01
 Coeff-Com:  0.100D+01
 Coeff-En:   0.100D+01
 Coeff:      0.100D+01
 Gap=     0.098 Goal=   None    Shift=    0.000
 GapD=    0.098 DampG=0.500 DampE=0.500 DampFc=0.2500 IDamp=-1.
 Damping current iteration by 2.50D-01
 RMSDP=1.38D-02 MaxDP=1.40D+00              OVMax= 3.09D-01

 Cycle   2  Pass 1  IDiag  1:
 RMSU=  3.40D-03    CP:  1.05D+00
 E= -573.459312592947     Delta-E=       -0.096389674194 Rises=F Damp=T
 DIIS: error= 1.45D-02 at cycle   2 NSaved=   2.
 NSaved= 2 IEnMin= 2 EnMin= -573.459312592947     IErMin= 2 ErrMin= 1.45D-02
 ErrMax= 1.45D-02  0.00D+00 EMaxC= 1.00D-01 BMatC= 5.71D-02 BMatP= 3.19D-01
 IDIUse=3 WtCom= 8.55D-01 WtEn= 1.45D-01
 Coeff-Com: -0.437D+00 0.144D+01
 Coeff-En:   0.000D+00 0.100D+01
 Coeff:     -0.374D+00 0.137D+01
 Gap=     0.141 Goal=   None    Shift=    0.000
 RMSDP=2.67D-03 MaxDP=1.27D-01 DE=-9.64D-02 OVMax= 2.90D-01

 Cycle   3  Pass 1  IDiag  1:
 RMSU=  2.64D-03    CP:  1.02D+00  1.04D+00
 E= -573.560977683617     Delta-E=       -0.101665090670 Rises=F Damp=F
 DIIS: error= 2.25D-02 at cycle   3 NSaved=   3.
 NSaved= 3 IEnMin= 3 EnMin= -573.560977683617     IErMin= 2 ErrMin= 1.45D-02
 ErrMax= 2.25D-02  0.00D+00 EMaxC= 1.00D-01 BMatC= 9.47D-02 BMatP= 5.71D-02
 IDIUse=2 WtCom= 0.00D+00 WtEn= 1.00D+00
 Coeff-En:   0.000D+00 0.566D-01 0.943D+00
 Coeff:      0.000D+00 0.566D-01 0.943D+00
 Gap=     0.106 Goal=   None    Shift=    0.000
 RMSDP=1.02D-02 MaxDP=8.86D-01 DE=-1.02D-01 OVMax= 5.70D-01

 Cycle   4  Pass 1  IDiag  1:
 RMSU=  4.57D-03    CP:  1.15D+00  2.93D+00 -1.36D+00
 E= -572.824039212891     Delta-E=        0.736938470726 Rises=F Damp=F
 DIIS: error= 7.36D-02 at cycle   4 NSaved=   4.
 NSaved= 4 IEnMin= 3 EnMin= -573.560977683617     IErMin= 2 ErrMin= 1.45D-02
 ErrMax= 7.36D-02  0.00D+00 EMaxC= 1.00D-01 BMatC= 8.96D-01 BMatP= 5.71D-02
 IDIUse=2 WtCom= 0.00D+00 WtEn= 1.00D+00
 Coeff-En:   0.000D+00 0.000D+00 0.849D+00 0.151D+00
 Coeff:      0.000D+00 0.000D+00 0.849D+00 0.151D+00
 Gap=     0.065 Goal=   None    Shift=    0.000
 RMSDP=7.28D-03 MaxDP=7.07D-01 DE= 7.37D-01 OVMax= 2.53D-01

 Cycle   5  Pass 1  IDiag  1:
 RMSU=  1.18D-03    CP:  1.06D+00  1.38D+00 -7.27D-02  2.89D-01
 E= -573.558727971524     Delta-E=       -0.734688758633 Rises=F Damp=F
 DIIS: error= 2.26D-02 at cycle   5 NSaved=   5.
 NSaved= 5 IEnMin= 3 EnMin= -573.560977683617     IErMin= 2 ErrMin= 1.45D-02
 ErrMax= 2.26D-02  0.00D+00 EMaxC= 1.00D-01 BMatC= 1.01D-01 BMatP= 5.71D-02
 IDIUse=2 WtCom= 0.00D+00 WtEn= 1.00D+00
 Coeff-En:   0.000D+00 0.000D+00 0.505D+00 0.000D+00 0.495D+00
 Coeff:      0.000D+00 0.000D+00 0.505D+00 0.000D+00 0.495D+00
 Gap=     0.119 Goal=   None    Shift=    0.000
 RMSDP=2.11D-03 MaxDP=1.58D-01 DE=-7.35D-01 OVMax= 1.16D-01

 Cycle   6  Pass 1  IDiag  1:
 RMSU=  2.89D-04    CP:  1.03D+00  1.06D+00  4.75D-01  1.03D-01  5.51D-01
 E= -573.639686852229     Delta-E=       -0.080958880705 Rises=F Damp=F
 DIIS: error= 2.61D-03 at cycle   6 NSaved=   6.
 NSaved= 6 IEnMin= 6 EnMin= -573.639686852229     IErMin= 6 ErrMin= 2.61D-03
 ErrMax= 2.61D-03  0.00D+00 EMaxC= 1.00D-01 BMatC= 1.27D-03 BMatP= 5.71D-02
 IDIUse=3 WtCom= 9.74D-01 WtEn= 2.61D-02
 Coeff-Com: -0.251D-01 0.406D-01 0.222D+00-0.290D-01 0.313D+00 0.478D+00
 Coeff-En:   0.000D+00 0.000D+00 0.000D+00 0.000D+00 0.000D+00 0.100D+01
 Coeff:     -0.245D-01 0.395D-01 0.217D+00-0.282D-01 0.305D+00 0.491D+00
 Gap=     0.100 Goal=   None    Shift=    0.000
 RMSDP=2.82D-04 MaxDP=1.27D-02 DE=-8.10D-02 OVMax= 1.90D-02

 Cycle   7  Pass 1  IDiag  1:
 RMSU=  1.81D-04    CP:  1.03D+00  1.10D+00  4.37D-01  1.20D-01  6.23D-01
                    CP:  6.80D-01
 E= -573.640537607105     Delta-E=       -0.000850754876 Rises=F Damp=F
 DIIS: error= 1.64D-03 at cycle   7 NSaved=   7.
 NSaved= 7 IEnMin= 7 EnMin= -573.640537607105     IErMin= 7 ErrMin= 1.64D-03
 ErrMax= 1.64D-03  0.00D+00 EMaxC= 1.00D-01 BMatC= 3.16D-04 BMatP= 1.27D-03
 IDIUse=3 WtCom= 9.84D-01 WtEn= 1.64D-02
 Coeff-Com: -0.121D-01 0.140D-01 0.331D-01-0.583D-02 0.440D-01 0.332D+00
 Coeff-Com:  0.595D+00
 Coeff-En:   0.000D+00 0.000D+00 0.000D+00 0.000D+00 0.000D+00 0.224D+00
 Coeff-En:   0.776D+00
 Coeff:     -0.119D-01 0.138D-01 0.325D-01-0.574D-02 0.432D-01 0.330D+00
 Coeff:      0.598D+00
 Gap=     0.100 Goal=   None    Shift=    0.000
 RMSDP=9.33D-05 MaxDP=2.70D-03 DE=-8.51D-04 OVMax= 5.02D-03

 Cycle   8  Pass 1  IDiag  1:
 RMSU=  3.99D-05    CP:  1.03D+00  1.10D+00  4.52D-01  1.16D-01  6.11D-01
                    CP:  7.21D-01  6.15D-01
 E= -573.640745057575     Delta-E=       -0.000207450470 Rises=F Damp=F
 DIIS: error= 4.65D-04 at cycle   8 NSaved=   8.
 NSaved= 8 IEnMin= 8 EnMin= -573.640745057575     IErMin= 8 ErrMin= 4.65D-04
 ErrMax= 4.65D-04  0.00D+00 EMaxC= 1.00D-01 BMatC= 2.55D-05 BMatP= 3.16D-04
 IDIUse=3 WtCom= 9.95D-01 WtEn= 4.65D-03
 Coeff-Com: -0.356D-02 0.105D-02 0.738D-02-0.115D-03 0.412D-02 0.201D+00
 Coeff-Com:  0.379D+00 0.411D+00
 Coeff-En:   0.000D+00 0.000D+00 0.000D+00 0.000D+00 0.000D+00 0.000D+00
 Coeff-En:   0.000D+00 0.100D+01
 Coeff:     -0.354D-02 0.104D-02 0.735D-02-0.114D-03 0.410D-02 0.200D+00
 Coeff:      0.377D+00 0.414D+00
 Gap=     0.100 Goal=   None    Shift=    0.000
 RMSDP=2.62D-05 MaxDP=7.99D-04 DE=-2.07D-04 OVMax= 2.49D-03

 Cycle   9  Pass 1  IDiag  1:
 RMSU=  1.30D-05    CP:  1.03D+00  1.10D+00  4.53D-01  1.16D-01  6.05D-01
                    CP:  7.43D-01  6.30D-01  5.08D-01
 E= -573.640770180636     Delta-E=       -0.000025123061 Rises=F Damp=F
 DIIS: error= 1.16D-04 at cycle   9 NSaved=   9.
 NSaved= 9 IEnMin= 9 EnMin= -573.640770180636     IErMin= 9 ErrMin= 1.16D-04
 ErrMax= 1.16D-04  0.00D+00 EMaxC= 1.00D-01 BMatC= 1.59D-06 BMatP= 2.55D-05
 IDIUse=3 WtCom= 9.99D-01 WtEn= 1.16D-03
 Coeff-Com: -0.966D-03 0.696D-03 0.176D-02 0.863D-04-0.164D-02 0.640D-01
 Coeff-Com:  0.129D+00 0.236D+00 0.571D+00
 Coeff-En:   0.000D+00 0.000D+00 0.000D+00 0.000D+00 0.000D+00 0.000D+00
 Coeff-En:   0.000D+00 0.818D-02 0.992D+00
 Coeff:     -0.965D-03 0.695D-03 0.176D-02 0.862D-04-0.164D-02 0.640D-01
 Coeff:      0.129D+00 0.236D+00 0.571D+00
 Gap=     0.100 Goal=   None    Shift=    0.000
 RMSDP=9.79D-06 MaxDP=6.15D-04 DE=-2.51D-05 OVMax= 5.82D-04

 Cycle  10  Pass 1  IDiag  1:
 RMSU=  3.10D-06    CP:  1.03D+00  1.09D+00  4.54D-01  1.15D-01  6.04D-01
                    CP:  7.51D-01  6.44D-01  5.14D-01  5.84D-01
 E= -573.640771740080     Delta-E=       -0.000001559445 Rises=F Damp=F
 DIIS: error= 1.78D-05 at cycle  10 NSaved=  10.
 NSaved=10 IEnMin=10 EnMin= -573.640771740080     IErMin=10 ErrMin= 1.78D-05
 ErrMax= 1.78D-05  0.00D+00 EMaxC= 1.00D-01 BMatC= 9.74D-08 BMatP= 1.59D-06
 IDIUse=1 WtCom= 1.00D+00 WtEn= 0.00D+00
 Coeff-Com: -0.378D-03 0.338D-03 0.834D-03 0.364D-04-0.113D-02 0.293D-01
 Coeff-Com:  0.605D-01 0.125D+00 0.346D+00 0.440D+00
 Coeff:     -0.378D-03 0.338D-03 0.834D-03 0.364D-04-0.113D-02 0.293D-01
 Coeff:      0.605D-01 0.125D+00 0.346D+00 0.440D+00
 Gap=     0.100 Goal=   None    Shift=    0.000
 RMSDP=2.23D-06 MaxDP=1.27D-04 DE=-1.56D-06 OVMax= 1.14D-04

 Cycle  11  Pass 1  IDiag  1:
 RMSU=  1.37D-06    CP:  1.03D+00  1.09D+00  4.54D-01  1.15D-01  6.04D-01
                    CP:  7.49D-01  6.43D-01  5.25D-01  6.39D-01  6.56D-01
 E= -573.640771826335     Delta-E=       -0.000000086255 Rises=F Damp=F
 DIIS: error= 5.05D-06 at cycle  11 NSaved=  11.
 NSaved=11 IEnMin=11 EnMin= -573.640771826335     IErMin=11 ErrMin= 5.05D-06
 ErrMax= 5.05D-06  0.00D+00 EMaxC= 1.00D-01 BMatC= 9.06D-09 BMatP= 9.74D-08
 IDIUse=1 WtCom= 1.00D+00 WtEn= 0.00D+00
 Coeff-Com:  0.130D-04-0.398D-04 0.181D-03 0.106D-04-0.357D-03 0.556D-02
 Coeff-Com:  0.120D-01 0.297D-01 0.919D-01 0.256D+00 0.605D+00
 Coeff:      0.130D-04-0.398D-04 0.181D-03 0.106D-04-0.357D-03 0.556D-02
 Coeff:      0.120D-01 0.297D-01 0.919D-01 0.256D+00 0.605D+00
 Gap=     0.100 Goal=   None    Shift=    0.000
 RMSDP=8.80D-07 MaxDP=5.88D-05 DE=-8.63D-08 OVMax= 3.35D-05

 Cycle  12  Pass 1  IDiag  1:
 RMSU=  3.74D-07    CP:  1.03D+00  1.09D+00  4.54D-01  1.15D-01  6.04D-01
                    CP:  7.49D-01  6.43D-01  5.29D-01  6.36D-01  7.08D-01
                    CP:  6.51D-01
 E= -573.640771852959     Delta-E=       -0.000000026624 Rises=F Damp=F
 DIIS: error= 1.60D-06 at cycle  12 NSaved=  12.
 NSaved=12 IEnMin=12 EnMin= -573.640771852959     IErMin=12 ErrMin= 1.60D-06
 ErrMax= 1.60D-06  0.00D+00 EMaxC= 1.00D-01 BMatC= 7.54D-10 BMatP= 9.06D-09
 IDIUse=1 WtCom= 1.00D+00 WtEn= 0.00D+00
 Coeff-Com:  0.273D-04-0.416D-04 0.681D-04 0.849D-05-0.180D-03 0.202D-02
 Coeff-Com:  0.452D-02 0.124D-01 0.411D-01 0.136D+00 0.367D+00 0.437D+00
 Coeff:      0.273D-04-0.416D-04 0.681D-04 0.849D-05-0.180D-03 0.202D-02
 Coeff:      0.452D-02 0.124D-01 0.411D-01 0.136D+00 0.367D+00 0.437D+00
 Gap=     0.100 Goal=   None    Shift=    0.000
 RMSDP=2.42D-07 MaxDP=1.75D-05 DE=-2.66D-08 OVMax= 1.21D-05

 Cycle  13  Pass 1  IDiag  1:
 RMSU=  1.10D-07    CP:  1.03D+00  1.09D+00  4.54D-01  1.15D-01  6.04D-01
                    CP:  7.49D-01  6.43D-01  5.29D-01  6.41D-01  7.07D-01
                    CP:  7.16D-01  6.38D-01
 E= -573.640771841306     Delta-E=        0.000000011653 Rises=F Damp=F
 DIIS: error= 5.20D-07 at cycle  13 NSaved=  13.
 NSaved=13 IEnMin=12 EnMin= -573.640771852959     IErMin=13 ErrMin= 5.20D-07
 ErrMax= 5.20D-07  0.00D+00 EMaxC= 1.00D-01 BMatC= 8.49D-11 BMatP= 7.54D-10
 IDIUse=1 WtCom= 1.00D+00 WtEn= 0.00D+00
 Coeff-Com:  0.132D-04-0.172D-04 0.785D-05 0.134D-05-0.327D-04 0.164D-03
 Coeff-Com:  0.483D-03 0.188D-02 0.795D-02 0.356D-01 0.112D+00 0.264D+00
 Coeff-Com:  0.578D+00
 Coeff:      0.132D-04-0.172D-04 0.785D-05 0.134D-05-0.327D-04 0.164D-03
 Coeff:      0.483D-03 0.188D-02 0.795D-02 0.356D-01 0.112D+00 0.264D+00
 Coeff:      0.578D+00
 Gap=     0.100 Goal=   None    Shift=    0.000
 RMSDP=5.40D-08 MaxDP=2.98D-06 DE= 1.17D-08 OVMax= 4.19D-06

 Cycle  14  Pass 1  IDiag  1:
 RMSU=  2.23D-08    CP:  1.03D+00  1.09D+00  4.54D-01  1.15D-01  6.04D-01
                    CP:  7.49D-01  6.44D-01  5.29D-01  6.40D-01  7.11D-01
                    CP:  7.15D-01  6.83D-01  7.30D-01
 E= -573.640771841377     Delta-E=       -0.000000000071 Rises=F Damp=F
 DIIS: error= 1.57D-07 at cycle  14 NSaved=  14.
 NSaved=14 IEnMin=12 EnMin= -573.640771852959     IErMin=14 ErrMin= 1.57D-07
 ErrMax= 1.57D-07  0.00D+00 EMaxC= 1.00D-01 BMatC= 8.46D-12 BMatP= 8.49D-11
 IDIUse=1 WtCom= 1.00D+00 WtEn= 0.00D+00
 Coeff-Com:  0.552D-05-0.745D-05 0.415D-06 0.223D-06-0.702D-05-0.168D-04
 Coeff-Com:  0.224D-04 0.352D-03 0.229D-02 0.129D-01 0.445D-01 0.132D+00
 Coeff-Com:  0.349D+00 0.459D+00
 Coeff:      0.552D-05-0.745D-05 0.415D-06 0.223D-06-0.702D-05-0.168D-04
 Coeff:      0.224D-04 0.352D-03 0.229D-02 0.129D-01 0.445D-01 0.132D+00
 Coeff:      0.349D+00 0.459D+00
 Gap=     0.100 Goal=   None    Shift=    0.000
 RMSDP=1.80D-08 MaxDP=1.09D-06 DE=-7.12D-11 OVMax= 1.27D-06

 Cycle  15  Pass 1  IDiag  1:
 RMSU=  9.51D-09    CP:  1.03D+00  1.09D+00  4.54D-01  1.15D-01  6.04D-01
                    CP:  7.49D-01  6.43D-01  5.29D-01  6.41D-01  7.10D-01
                    CP:  7.17D-01  6.81D-01  7.51D-01  7.79D-01
 E= -573.640771841381     Delta-E=       -0.000000000004 Rises=F Damp=F
 DIIS: error= 3.06D-08 at cycle  15 NSaved=  15.
 NSaved=15 IEnMin=12 EnMin= -573.640771852959     IErMin=15 ErrMin= 3.06D-08
 ErrMax= 3.06D-08  0.00D+00 EMaxC= 1.00D-01 BMatC= 4.05D-13 BMatP= 8.46D-12
 IDIUse=1 WtCom= 1.00D+00 WtEn= 0.00D+00
 Coeff-Com:  0.900D-06-0.132D-05-0.118D-05 0.250D-07 0.266D-06-0.308D-04
 Coeff-Com: -0.559D-04-0.619D-04 0.193D-03 0.213D-02 0.849D-02 0.327D-01
 Coeff-Com:  0.101D+00 0.221D+00 0.634D+00
 Coeff:      0.900D-06-0.132D-05-0.118D-05 0.250D-07 0.266D-06-0.308D-04
 Coeff:     -0.559D-04-0.619D-04 0.193D-03 0.213D-02 0.849D-02 0.327D-01
 Coeff:      0.101D+00 0.221D+00 0.634D+00
 Gap=     0.100 Goal=   None    Shift=    0.000
 RMSDP=4.92D-09 MaxDP=2.62D-07 DE=-4.21D-12 OVMax= 4.81D-07

 Error on total polarization charges =  0.01303
 SCF Done:  E(RB-P86) =  -573.640771841     A.U. after   15 cycles
            NFock= 15  Conv=0.49D-08     -V/T= 2.0027
 KE= 5.720732537755D+02 PE=-2.582694858787D+03 EE= 8.162327283510D+02
 Leave Link  502 at Mon Feb 22 21:15:24 2021, MaxMem=   104857600 cpu:             528.1 elap:              16.9
 (Enter /sw/arch/RedHatEnterpriseServer7/EB_production/2019/software/Gaussian/g16.c01/l601.exe)
 Copying SCF densities to generalized density rwf, IOpCl= 0 IROHF=0.

 **********************************************************************

            Population analysis using the SCF Density.

 **********************************************************************

 Orbital symmetries:
       Occupied  (A) (A) (A) (A) (A) (A) (A) (A) (A) (A) (A) (A)
                 (A) (A) (A) (A) (A) (A) (A) (A) (A) (A) (A) (A)
                 (A) (A) (A) (A) (A) (A) (A) (A) (A) (A) (A) (A)
                 (A) (A) (A) (A) (A) (A) (A)
       Virtual   (A) (A) (A) (A) (A) (A) (A) (A) (A) (A) (A) (A)
                 (A) (A) (A) (A) (A) (A) (A) (A) (A) (A) (A) (A)
                 (A) (A) (A) (A) (A) (A) (A) (A) (A) (A) (A) (A)
                 (A) (A) (A) (A) (A) (A) (A) (A) (A) (A) (A) (A)
                 (A) (A) (A) (A) (A) (A) (A) (A) (A) (A) (A) (A)
                 (A) (A) (A) (A) (A) (A) (A) (A) (A) (A) (A) (A)
                 (A) (A) (A) (A) (A) (A) (A) (A) (A) (A) (A) (A)
                 (A) (A) (A) (A) (A) (A) (A) (A) (A) (A) (A) (A)
                 (A) (A) (A) (A) (A) (A) (A) (A) (A) (A) (A) (A)
                 (A) (A) (A) (A) (A) (A) (A) (A) (A) (A) (A) (A)
                 (A) (A) (A) (A) (A) (A) (A) (A) (A) (A) (A) (A)
                 (A) (A) (A) (A) (A) (A) (A) (A) (A) (A) (A) (A)
                 (A) (A) (A) (A) (A) (A) (A) (A) (A) (A) (A) (A)
                 (A) (A) (A) (A) (A) (A) (A) (A) (A) (A) (A) (A)
                 (A) (A) (A) (A) (A) (A) (A) (A) (A) (A) (A) (A)
                 (A) (A) (A) (A) (A) (A) (A) (A) (A) (A) (A) (A)
                 (A) (A) (A) (A) (A) (A) (A) (A) (A) (A) (A) (A)
                 (A) (A) (A) (A) (A) (A) (A) (A) (A) (A) (A) (A)
                 (A) (A) (A) (A) (A) (A) (A) (A) (A) (A) (A) (A)
                 (A) (A) (A) (A) (A)
 The electronic state is 1-A.
 Alpha  occ. eigenvalues --  -18.82118 -18.81088 -18.74707 -10.02029  -9.98030
 Alpha  occ. eigenvalues --   -9.92018  -9.91691  -9.91642  -9.91630  -9.91168
 Alpha  occ. eigenvalues --   -9.90875  -9.89915  -1.00938  -1.00065  -0.91473
 Alpha  occ. eigenvalues --   -0.80301  -0.75613  -0.70187  -0.69526  -0.62077
 Alpha  occ. eigenvalues --   -0.59119  -0.57490  -0.54551  -0.51681  -0.48471
 Alpha  occ. eigenvalues --   -0.46305  -0.43647  -0.42509  -0.41324  -0.40419
 Alpha  occ. eigenvalues --   -0.39878  -0.38689  -0.37496  -0.36965  -0.34536
 Alpha  occ. eigenvalues --   -0.33615  -0.32933  -0.31715  -0.28338  -0.26823
 Alpha  occ. eigenvalues --   -0.24842  -0.22959  -0.21010
 Alpha virt. eigenvalues --   -0.11024  -0.06378  -0.02497   0.01749   0.02050
 Alpha virt. eigenvalues --    0.03513   0.05656   0.06556   0.08592   0.09148
 Alpha virt. eigenvalues --    0.09418   0.10860   0.11530   0.12706   0.13732
 Alpha virt. eigenvalues --    0.15019   0.15640   0.16944   0.17816   0.19061
 Alpha virt. eigenvalues --    0.19458   0.20083   0.20276   0.21377   0.22119
 Alpha virt. eigenvalues --    0.23005   0.23071   0.23960   0.25569   0.26537
 Alpha virt. eigenvalues --    0.28172   0.28378   0.29105   0.29803   0.30454
 Alpha virt. eigenvalues --    0.30911   0.32311   0.33028   0.33526   0.34635
 Alpha virt. eigenvalues --    0.34887   0.35987   0.35998   0.38230   0.39808
 Alpha virt. eigenvalues --    0.40886   0.41758   0.42099   0.42709   0.43576
 Alpha virt. eigenvalues --    0.44575   0.44941   0.45910   0.45960   0.46610
 Alpha virt. eigenvalues --    0.47838   0.48382   0.49063   0.50824   0.51540
 Alpha virt. eigenvalues --    0.53887   0.54810   0.55977   0.56701   0.58224
 Alpha virt. eigenvalues --    0.59336   0.61309   0.62323   0.63574   0.64328
 Alpha virt. eigenvalues --    0.65112   0.67057   0.70807   0.71214   0.73931
 Alpha virt. eigenvalues --    0.75852   0.77221   0.80408   0.83182   0.89026
 Alpha virt. eigenvalues --    0.91010   1.11719   1.15076   1.15981   1.16325
 Alpha virt. eigenvalues --    1.17605   1.17882   1.19632   1.21101   1.21218
 Alpha virt. eigenvalues --    1.21802   1.22789   1.23533   1.25396   1.27620
 Alpha virt. eigenvalues --    1.28444   1.29076   1.30306   1.30997   1.32651
 Alpha virt. eigenvalues --    1.33392   1.34322   1.35622   1.35847   1.36767
 Alpha virt. eigenvalues --    1.37726   1.39054   1.39375   1.40139   1.41500
 Alpha virt. eigenvalues --    1.42649   1.43951   1.44091   1.44402   1.45144
 Alpha virt. eigenvalues --    1.46314   1.46677   1.49554   1.50582   1.52706
 Alpha virt. eigenvalues --    1.55071   1.55241   1.58628   1.61536   1.67275
 Alpha virt. eigenvalues --    1.70536   1.71434   1.73174   1.74236   1.75172
 Alpha virt. eigenvalues --    1.76506   1.80537   1.81482   1.82294   1.83575
 Alpha virt. eigenvalues --    1.84114   1.84398   1.86457   1.89810   1.90718
 Alpha virt. eigenvalues --    1.92121   1.92692   1.96087   1.98247   1.98952
 Alpha virt. eigenvalues --    2.02112   2.04693   2.08552   2.10133   2.12655
 Alpha virt. eigenvalues --    2.14197   2.17315   2.18413   2.18958   2.19574
 Alpha virt. eigenvalues --    2.20875   2.23156   2.23469   2.25024   2.28235
 Alpha virt. eigenvalues --    2.29728   2.30644   2.35382   2.38021   2.41349
 Alpha virt. eigenvalues --    2.43016   2.48209   2.49368   2.49803   2.50607
 Alpha virt. eigenvalues --    2.51967   2.52928   2.54675   2.55294   2.56251
 Alpha virt. eigenvalues --    2.56759   2.57446   2.59012   2.59870   2.60636
 Alpha virt. eigenvalues --    2.62456   2.63291   2.69316   2.69656   2.71794
 Alpha virt. eigenvalues --    2.73671   2.75204   2.77625   2.83151   2.83517
 Alpha virt. eigenvalues --    2.88376   2.88735   2.89928   2.90392   2.94277
 Alpha virt. eigenvalues --    2.98064   3.01228   3.02382   3.04081   3.05429
 Alpha virt. eigenvalues --    3.06450   3.08668   3.09405   3.10231   3.13811
 Alpha virt. eigenvalues --    3.14802   3.17304   3.19131   3.22468   3.30389
 Alpha virt. eigenvalues --    3.32324   3.37031   3.45314   3.47081   3.53622
 Alpha virt. eigenvalues --    3.63957   3.86847   3.95481   4.02344   4.18199
 Alpha virt. eigenvalues --    4.20820  21.06811  21.45351  21.59834  21.63724
 Alpha virt. eigenvalues --   21.77759  21.82989  21.87092  21.96171  22.04437
 Alpha virt. eigenvalues --   43.07115  43.13786  43.14537
          Condensed to atoms (all electrons):
               1          2          3          4          5          6
     1  O    8.039678   0.642117  -0.129581  -0.194548   0.031961  -0.003831
     2  C    0.642117   4.907115   0.404665  -0.260616   0.263762  -0.042310
     3  O   -0.129581   0.404665   7.893836  -0.228167   0.057214  -0.002661
     4  C   -0.194548  -0.260616  -0.228167   6.696048  -0.422436   0.181689
     5  C    0.031961   0.263762   0.057214  -0.422436   6.074466  -0.067055
     6  C   -0.003831  -0.042310  -0.002661   0.181689  -0.067055   5.510953
     7  C   -0.000139   0.009311   0.000189  -0.052404  -0.057774   0.258549
     8  C   -0.000021  -0.001953  -0.000002   0.006306   0.028258   0.069118
     9  C    0.000001   0.000062  -0.000000  -0.000607   0.003549  -0.125649
    10  O   -0.000000   0.000000   0.000000  -0.000000   0.000051  -0.001044
    11  C   -0.000002   0.000403   0.000003  -0.005297   0.016484   0.047170
    12  C    0.000034  -0.005776  -0.000099   0.038562  -0.102427   0.353104
    13  H    0.003035  -0.029285   0.294487   0.028395  -0.004343   0.000221
    14  H    0.003932  -0.060237   0.003923   0.462308  -0.064138  -0.004657
    15  H    0.001032   0.000182   0.014292  -0.072655   0.427171  -0.035873
    16  H   -0.000005   0.001017   0.000007   0.002991  -0.019995  -0.053142
    17  H   -0.000000  -0.000019  -0.000000   0.000359  -0.002046   0.012704
    18  H    0.000000  -0.000000   0.000000   0.000001  -0.000019  -0.000627
    19  H   -0.000000  -0.000001   0.000000   0.000041  -0.001104   0.015145
    20  H   -0.000002  -0.000572  -0.000052   0.003545  -0.017599  -0.085901
               7          8          9         10         11         12
     1  O   -0.000139  -0.000021   0.000001  -0.000000  -0.000002   0.000034
     2  C    0.009311  -0.001953   0.000062   0.000000   0.000403  -0.005776
     3  O    0.000189  -0.000002  -0.000000   0.000000   0.000003  -0.000099
     4  C   -0.052404   0.006306  -0.000607  -0.000000  -0.005297   0.038562
     5  C   -0.057774   0.028258   0.003549   0.000051   0.016484  -0.102427
     6  C    0.258549   0.069118  -0.125649  -0.001044   0.047170   0.353104
     7  C    5.545216  -0.020094   0.111839   0.019734  -0.044877  -0.116751
     8  C   -0.020094   5.793367   0.207423  -0.110963  -0.085855  -0.057300
     9  C    0.111839   0.207423   5.050086   0.376535   0.382621   0.004269
    10  O    0.019734  -0.110963   0.376535   7.750455  -0.077392   0.007376
    11  C   -0.044877  -0.085855   0.382621  -0.077392   5.271428   0.318713
    12  C   -0.116751  -0.057300   0.004269   0.007376   0.318713   5.260513
    13  H    0.000001  -0.000000  -0.000000  -0.000000   0.000000  -0.000013
    14  H    0.002800   0.001639  -0.000147  -0.000000  -0.000040   0.001430
    15  H    0.017032  -0.001359  -0.000164   0.000001   0.003167  -0.019089
    16  H    0.419230  -0.026606   0.008799  -0.000108   0.000811   0.008836
    17  H   -0.017844   0.416293  -0.067348  -0.006338   0.004343   0.003712
    18  H    0.006817  -0.029022  -0.020994   0.302584   0.012844  -0.001035
    19  H   -0.003298   0.016047  -0.077119   0.002998   0.434354  -0.042317
    20  H    0.017611  -0.004633   0.021003  -0.000122  -0.063225   0.465096
              13         14         15         16         17         18
     1  O    0.003035   0.003932   0.001032  -0.000005  -0.000000   0.000000
     2  C   -0.029285  -0.060237   0.000182   0.001017  -0.000019  -0.000000
     3  O    0.294487   0.003923   0.014292   0.000007  -0.000000   0.000000
     4  C    0.028395   0.462308  -0.072655   0.002991   0.000359   0.000001
     5  C   -0.004343  -0.064138   0.427171  -0.019995  -0.002046  -0.000019
     6  C    0.000221  -0.004657  -0.035873  -0.053142   0.012704  -0.000627
     7  C    0.000001   0.002800   0.017032   0.419230  -0.017844   0.006817
     8  C   -0.000000   0.001639  -0.001359  -0.026606   0.416293  -0.029022
     9  C   -0.000000  -0.000147  -0.000164   0.008799  -0.067348  -0.020994
    10  O   -0.000000  -0.000000   0.000001  -0.000108  -0.006338   0.302584
    11  C    0.000000  -0.000040   0.003167   0.000811   0.004343   0.012844
    12  C   -0.000013   0.001430  -0.019089   0.008836   0.003712  -0.001035
    13  H    0.377049  -0.000091  -0.000429  -0.000000   0.000000  -0.000000
    14  H   -0.000091   0.461451   0.002392   0.000896   0.000041  -0.000000
    15  H   -0.000429   0.002392   0.484044   0.000169  -0.000005  -0.000000
    16  H   -0.000000   0.000896   0.000169   0.498806  -0.003649  -0.000032
    17  H    0.000000   0.000041  -0.000005  -0.003649   0.494674   0.000454
    18  H   -0.000000  -0.000000  -0.000000  -0.000032   0.000454   0.417972
    19  H    0.000000   0.000002   0.000024   0.000046  -0.000147  -0.000637
    20  H    0.000001   0.000008   0.000386  -0.000052   0.000020   0.000035
              19         20
     1  O   -0.000000  -0.000002
     2  C   -0.000001  -0.000572
     3  O    0.000000  -0.000052
     4  C    0.000041   0.003545
     5  C   -0.001104  -0.017599
     6  C    0.015145  -0.085901
     7  C   -0.003298   0.017611
     8  C    0.016047  -0.004633
     9  C   -0.077119   0.021003
    10  O    0.002998  -0.000122
    11  C    0.434354  -0.063225
    12  C   -0.042317   0.465096
    13  H    0.000000   0.000001
    14  H    0.000002   0.000008
    15  H    0.000024   0.000386
    16  H    0.000046  -0.000052
    17  H   -0.000147   0.000020
    18  H   -0.000637   0.000035
    19  H    0.503635  -0.007283
    20  H   -0.007283   0.519732
 Mulliken charges:
               1
     1  O   -0.393662
     2  C    0.172136
     3  O   -0.308055
     4  C   -0.183515
     5  C   -0.143982
     6  C   -0.025904
     7  C   -0.095148
     8  C   -0.200642
     9  C    0.125841
    10  O   -0.263766
    11  C   -0.215654
    12  C   -0.116839
    13  H    0.330972
    14  H    0.188485
    15  H    0.179682
    16  H    0.161980
    17  H    0.164795
    18  H    0.311659
    19  H    0.159613
    20  H    0.152004
 Sum of Mulliken charges =  -0.00000
 Mulliken charges with hydrogens summed into heavy atoms:
               1
     1  O   -0.393662
     2  C    0.172136
     3  O    0.022917
     4  C    0.004970
     5  C    0.035700
     6  C   -0.025904
     7  C    0.066831
     8  C   -0.035847
     9  C    0.125841
    10  O    0.047893
    11  C   -0.056041
    12  C    0.035165
 Electronic spatial extent (au):  <R**2>=           3079.1641
 Charge=             -0.0000 electrons
 Dipole moment (field-independent basis, Debye):
    X=              5.1300    Y=              0.7794    Z=              1.0199  Tot=              5.2882
 Quadrupole moment (field-independent basis, Debye-Ang):
   XX=            -73.1962   YY=            -62.0044   ZZ=            -72.6634
   XY=            -21.7115   XZ=             -2.1217   YZ=             -1.9459
 Traceless Quadrupole moment (field-independent basis, Debye-Ang):
   XX=             -3.9082   YY=              7.2836   ZZ=             -3.3754
   XY=            -21.7115   XZ=             -2.1217   YZ=             -1.9459
 Octapole moment (field-independent basis, Debye-Ang**2):
  XXX=             35.9727  YYY=              2.0119  ZZZ=              0.3072  XYY=             32.0404
  XXY=             28.4560  XXZ=             25.7071  XZZ=             -7.4076  YZZ=             -0.4589
  YYZ=              1.6482  XYZ=             -1.8083
 Hexadecapole moment (field-independent basis, Debye-Ang**3):
 XXXX=          -3242.0969 YYYY=           -399.2320 ZZZZ=            -90.9271 XXXY=           -562.3558
 XXXZ=            -60.0917 YYYX=            -54.8104 YYYZ=             -6.4439 ZZZX=             -2.1236
 ZZZY=              2.4645 XXYY=           -576.2592 XXZZ=           -590.9369 YYZZ=            -93.1301
 XXYZ=            -22.3485 YYXZ=             -6.4363 ZZXY=             -7.8750
 N-N= 6.207481048193D+02 E-N=-2.582694856038D+03  KE= 5.720732537755D+02
 No NMR shielding tensors so no spin-rotation constants.
 Leave Link  601 at Mon Feb 22 21:15:25 2021, MaxMem=   104857600 cpu:               6.2 elap:               0.3
 (Enter /sw/arch/RedHatEnterpriseServer7/EB_production/2019/software/Gaussian/g16.c01/l701.exe)
 ... and contract with generalized density number  0.
 Compute integral first derivatives.
 R6Disp: Adding Grimme-D3 dispersion energy 1st derivatives to the gradient.
 PrsmSu:  requested number of processors reduced to:  29 ShMem   1 Linda.
 D1PCM: PCM CHGder 1st derivatives, ID1Alg=3 FixD1E=F DoIter=F DoCFld=F I1PDM=0.
 GePol: Maximum number of non-zero 1st derivatives   =     214
 CoulSu:  requested number of processors reduced to:  29 ShMem   1 Linda.
 CoulSu:  requested number of processors reduced to:  30 ShMem   1 Linda.
 Leave Link  701 at Mon Feb 22 21:15:25 2021, MaxMem=   104857600 cpu:              23.7 elap:               0.8
 (Enter /sw/arch/RedHatEnterpriseServer7/EB_production/2019/software/Gaussian/g16.c01/l702.exe)
 L702 exits ... SP integral derivatives will be done elsewhere.
 Leave Link  702 at Mon Feb 22 21:15:26 2021, MaxMem=   104857600 cpu:               0.6 elap:               0.0
 (Enter /sw/arch/RedHatEnterpriseServer7/EB_production/2019/software/Gaussian/g16.c01/l703.exe)
 Integral derivatives from FoFJK, PRISM(SPDF).
 Compute integral first derivatives, UseDBF=F ICtDFT=           0.
 Calling FoFJK, ICntrl=      2527 FMM=F ISym2X=0 I1Cent= 0 IOpClX= 0 NMat=1 NMatS=1 NMatT=0.
 FoFJK:  IHMeth= 1 ICntrl=    2527 DoSepK=F KAlg= 0 I1Cent=           0 FoldK=F
 IRaf=         0 NMat=       1 IRICut=       1 DoRegI=T DoRafI=F ISym2E= 0 IDoP0=0 IntGTp=1.
 FoFCou: FMM=F IPFlag=           0 FMFlag=      100000 FMFlg1=         800
         NFxFlg=           0 DoJE=F BraDBF=F KetDBF=F FulRan=T
         wScrn=  0.000000 ICntrl=      2527 IOpCl=  0 I1Cent=           0 NGrid=           0
         NMat0=    1 NMatS0=      1 NMatT0=    0 NMatD0=    1 NMtDS0=    0 NMtDT0=    0
 Symmetry not used in FoFCou.
 Leave Link  703 at Mon Feb 22 21:15:28 2021, MaxMem=   104857600 cpu:              64.8 elap:               2.1
 (Enter /sw/arch/RedHatEnterpriseServer7/EB_production/2019/software/Gaussian/g16.c01/l716.exe)
 Dipole        = 2.01830453D+00 3.06636865D-01 4.01267006D-01
 ***** Axes restored to original set *****
 -------------------------------------------------------------------
 Center     Atomic                   Forces (Hartrees/Bohr)
 Number     Number              X              Y              Z
 -------------------------------------------------------------------
      1        8          -0.001437064   -0.003404323    0.001312552
      2        6           0.024039503    0.092222230    0.000184978
      3        8          -0.004543080   -0.036550654   -0.024590980
      4        6           0.005436719   -0.041892700   -0.065175933
      5        6          -0.006784518    0.016479863    0.054844708
      6        6          -0.010021194   -0.036215408    0.014480264
      7        6          -0.028144709   -0.047528808   -0.031443292
      8        6          -0.001526089    0.025557396   -0.058824029
      9        6           0.002619376    0.011495786   -0.004848915
     10        8           0.000928396   -0.004067006    0.004661248
     11        6           0.021846182    0.043652877    0.028509121
     12        6           0.004936178   -0.023525332    0.059352884
     13        1          -0.003477107    0.001863394    0.019814135
     14        1          -0.016082553    0.007159323    0.081728948
     15        1           0.013011479    0.001315747   -0.081841164
     16        1           0.023123010    0.037913030    0.034134362
     17        1           0.006656976   -0.011038848    0.054328072
     18        1          -0.004061401   -0.006664497   -0.002269597
     19        1          -0.021383278   -0.037764750   -0.032869157
     20        1          -0.005136826    0.010992679   -0.051488205
 -------------------------------------------------------------------
 Cartesian Forces:  Max     0.092222230 RMS     0.032670675
 Leave Link  716 at Mon Feb 22 21:15:28 2021, MaxMem=   104857600 cpu:               0.8 elap:               0.1
 (Enter /sw/arch/RedHatEnterpriseServer7/EB_production/2019/software/Gaussian/g16.c01/l103.exe)

 GradGradGradGradGradGradGradGradGradGradGradGradGradGradGradGradGradGrad
 Berny optimization.
 FormGI is forming the generalized inverse of G from B-inverse, IUseBI=4.
 Internal  Forces:  Max     0.083417225 RMS     0.019811407
 Search for a local minimum.
 Step number   1 out of a maximum of   99
 All quantities printed in internal units (Hartrees-Bohrs-Radians)
 RMS Force = .19811D-01 SwitMx=.10000D-02 MixMth= 1
 Mixed Optimization -- RFO/linear search
 Second derivative matrix not updated -- first step.
 ITU=  0
     Eigenvalues ---    0.01849   0.01905   0.01915   0.01931   0.01968
     Eigenvalues ---    0.01996   0.02006   0.02013   0.02052   0.02078
     Eigenvalues ---    0.02262   0.02278   0.02307   0.02321   0.02436
     Eigenvalues ---    0.02561   0.02787   0.15999   0.15999   0.16000
     Eigenvalues ---    0.16000   0.16000   0.16000   0.16000   0.16000
     Eigenvalues ---    0.22000   0.22000   0.22000   0.22963   0.23999
     Eigenvalues ---    0.24995   0.25000   0.25000   0.25000   0.39970
     Eigenvalues ---    0.40107   0.43055   0.43567   0.43806   0.43910
     Eigenvalues ---    0.43933   0.44148   0.44498   0.44665   0.45485
     Eigenvalues ---    0.48078   0.48665   0.48814   0.51317   0.51337
     Eigenvalues ---    0.53585   0.53827   0.55614   0.82350
 RFO step:  Lambda=-7.15154793D-02 EMin= 1.84863503D-02
 Linear search not attempted -- first point.
 Maximum step size (   0.300) exceeded in Quadratic search.
    -- Step size scaled by   0.757
 Iteration  1 RMS(Cart)=  0.04663692 RMS(Int)=  0.00122907
 Iteration  2 RMS(Cart)=  0.00148945 RMS(Int)=  0.00000701
 Iteration  3 RMS(Cart)=  0.00000088 RMS(Int)=  0.00000699
 ITry= 1 IFail=0 DXMaxC= 1.61D-01 DCOld= 1.00D+10 DXMaxT= 3.00D-01 DXLimC= 3.00D+00 Rises=F
 Variable       Old X    -DE/DX   Delta X   Delta X   Delta X     New X
                                 (Linear)    (Quad)   (Total)
    R1        2.36672  -0.00216   0.00000  -0.00183  -0.00183   2.36490
    R2        2.56190  -0.00019   0.00000  -0.00024  -0.00024   2.56166
    R3        2.61237   0.05240   0.00000   0.07103   0.07103   2.68340
    R4        1.85240  -0.00674   0.00000  -0.00872  -0.00872   1.84368
    R5        2.54590   0.02372   0.00000   0.02859   0.02859   2.57449
    R6        1.87781   0.08342   0.00000   0.11276   0.11276   1.99057
    R7        2.64716   0.04081   0.00000   0.05866   0.05866   2.70582
    R8        1.88556   0.08285   0.00000   0.11348   0.11348   1.99904
    R9        2.68411  -0.00271   0.00000  -0.00424  -0.00424   2.67988
   R10        2.68110  -0.00048   0.00000  -0.00095  -0.00095   2.68015
   R11        2.65569  -0.01194   0.00000  -0.01731  -0.01731   2.63838
   R12        1.92978   0.05594   0.00000   0.08250   0.08250   2.01228
   R13        2.65732   0.00402   0.00000   0.00608   0.00607   2.66340
   R14        1.93234   0.05583   0.00000   0.08269   0.08269   2.01503
   R15        2.56412   0.01131   0.00000   0.01408   0.01408   2.57820
   R16        2.65755  -0.00264   0.00000  -0.00376  -0.00376   2.65379
   R17        1.85259  -0.00321   0.00000  -0.00415  -0.00415   1.84844
   R18        2.66009  -0.01237   0.00000  -0.01827  -0.01827   2.64182
   R19        1.93263   0.05443   0.00000   0.08065   0.08065   2.01327
   R20        1.93676   0.05286   0.00000   0.07884   0.07884   2.01560
    A1        2.05140   0.02149   0.00000   0.05057   0.05057   2.10197
    A2        2.09259   0.01379   0.00000   0.03244   0.03244   2.12503
    A3        2.13919  -0.03528   0.00000  -0.08301  -0.08301   2.05618
    A4        2.09862  -0.03527   0.00000  -0.11525  -0.11525   1.98338
    A5        2.17122  -0.00105   0.00000  -0.00272  -0.00272   2.16850
    A6        2.02921  -0.00468   0.00000  -0.01564  -0.01564   2.01357
    A7        2.08274   0.00573   0.00000   0.01836   0.01836   2.10110
    A8        2.19245   0.00293   0.00000   0.00761   0.00761   2.20006
    A9        2.05306  -0.00103   0.00000  -0.00237  -0.00237   2.05069
   A10        2.03759  -0.00190   0.00000  -0.00524  -0.00524   2.03235
   A11        2.15014  -0.00061   0.00000  -0.00118  -0.00118   2.14896
   A12        2.08056   0.00056   0.00000   0.00158   0.00157   2.08213
   A13        2.05233   0.00005   0.00000  -0.00037  -0.00036   2.05197
   A14        2.11640  -0.00039   0.00000  -0.00098  -0.00098   2.11543
   A15        2.11887  -0.00241   0.00000  -0.00802  -0.00802   2.11085
   A16        2.04784   0.00279   0.00000   0.00897   0.00897   2.05681
   A17        2.09730  -0.00068   0.00000  -0.00115  -0.00116   2.09614
   A18        2.08834   0.00007   0.00000  -0.00032  -0.00032   2.08802
   A19        2.09754   0.00061   0.00000   0.00147   0.00147   2.09901
   A20        2.10458   0.00844   0.00000   0.01959   0.01959   2.12417
   A21        2.08790   0.00095   0.00000   0.00278   0.00278   2.09068
   A22        2.09071  -0.00939   0.00000  -0.02237  -0.02236   2.06834
   A23        1.84409   0.01379   0.00000   0.04506   0.04506   1.88916
   A24        2.09601  -0.00220   0.00000  -0.00565  -0.00566   2.09036
   A25        2.09427   0.00016   0.00000  -0.00025  -0.00025   2.09402
   A26        2.09290   0.00204   0.00000   0.00590   0.00590   2.09881
   A27        2.11640   0.00227   0.00000   0.00536   0.00536   2.12176
   A28        2.10628  -0.00311   0.00000  -0.00913  -0.00913   2.09715
   A29        2.06049   0.00084   0.00000   0.00376   0.00376   2.06424
    D1        0.00660   0.00002   0.00000   0.00020   0.00021   0.00680
    D2       -3.13391  -0.00020   0.00000  -0.00158  -0.00158  -3.13550
    D3       -3.12168  -0.00030   0.00000  -0.00241  -0.00241  -3.12409
    D4        0.02620  -0.00026   0.00000  -0.00202  -0.00202   0.02418
    D5        0.01881  -0.00007   0.00000  -0.00059  -0.00059   0.01823
    D6       -3.11650  -0.00003   0.00000  -0.00019  -0.00020  -3.11669
    D7        3.12568   0.00000   0.00000  -0.00001  -0.00001   3.12567
    D8       -0.03113  -0.00002   0.00000  -0.00022  -0.00021  -0.03134
    D9       -0.02238  -0.00008   0.00000  -0.00054  -0.00054  -0.02292
   D10        3.10400  -0.00010   0.00000  -0.00074  -0.00074   3.10326
   D11       -0.40241   0.00190   0.00000   0.01561   0.01561  -0.38680
   D12        2.75814   0.00169   0.00000   0.01385   0.01385   2.77199
   D13        2.75427   0.00192   0.00000   0.01579   0.01579   2.77006
   D14       -0.36836   0.00171   0.00000   0.01403   0.01403  -0.35433
   D15       -3.12651  -0.00050   0.00000  -0.00419  -0.00417  -3.13068
   D16        0.00154  -0.00069   0.00000  -0.00587  -0.00585  -0.00431
   D17       -0.00359  -0.00029   0.00000  -0.00243  -0.00242  -0.00601
   D18        3.12446  -0.00048   0.00000  -0.00411  -0.00410   3.12036
   D19        3.12766   0.00076   0.00000   0.00635   0.00637   3.13402
   D20       -0.02108   0.00048   0.00000   0.00403   0.00404  -0.01704
   D21        0.00397   0.00056   0.00000   0.00470   0.00471   0.00868
   D22        3.13842   0.00029   0.00000   0.00237   0.00239   3.14080
   D23        0.00479  -0.00013   0.00000  -0.00102  -0.00102   0.00377
   D24       -3.14094  -0.00028   0.00000  -0.00223  -0.00224   3.14000
   D25       -3.12379   0.00009   0.00000   0.00072   0.00074  -3.12305
   D26        0.01366  -0.00005   0.00000  -0.00049  -0.00048   0.01318
   D27        3.13757   0.00005   0.00000   0.00035   0.00032   3.13789
   D28       -0.00620   0.00027   0.00000   0.00229   0.00230  -0.00390
   D29        0.00014   0.00020   0.00000   0.00157   0.00156   0.00169
   D30        3.13956   0.00042   0.00000   0.00352   0.00353  -3.14010
   D31       -0.07033   0.00064   0.00000   0.00514   0.00514  -0.06519
   D32        3.07344   0.00040   0.00000   0.00316   0.00316   3.07660
   D33        0.00656  -0.00001   0.00000  -0.00009  -0.00009   0.00648
   D34       -3.13559  -0.00020   0.00000  -0.00167  -0.00166  -3.13725
   D35       -3.13718   0.00023   0.00000   0.00189   0.00187  -3.13531
   D36        0.00385   0.00005   0.00000   0.00031   0.00030   0.00415
   D37       -0.00554  -0.00042   0.00000  -0.00350  -0.00350  -0.00905
   D38       -3.14017  -0.00014   0.00000  -0.00118  -0.00117  -3.14134
   D39        3.13661  -0.00023   0.00000  -0.00192  -0.00192   3.13469
   D40        0.00199   0.00005   0.00000   0.00040   0.00041   0.00239
         Item               Value     Threshold  Converged?
 Maximum Force            0.083417     0.000450     NO 
 RMS     Force            0.019811     0.000300     NO 
 Maximum Displacement     0.161248     0.001800     NO 
 RMS     Displacement     0.046730     0.001200     NO 
 Predicted change in Energy=-3.689655D-02
 Lowest energy point so far.  Saving SCF results.
 GradGradGradGradGradGradGradGradGradGradGradGradGradGradGradGradGradGrad

 Leave Link  103 at Mon Feb 22 21:15:28 2021, MaxMem=   104857600 cpu:               1.8 elap:               0.1
 (Enter /sw/arch/RedHatEnterpriseServer7/EB_production/2019/software/Gaussian/g16.c01/l202.exe)
                          Input orientation:                          
 ---------------------------------------------------------------------
 Center     Atomic      Atomic             Coordinates (Angstroms)
 Number     Number       Type             X           Y           Z
 ---------------------------------------------------------------------
      1          8           0       -0.598393    4.607039    5.154264
      2          6           0       -0.739380    3.564682    4.476223
      3          8           0       -0.491538    3.573658    3.143531
      4          6           0       -1.160371    2.342317    5.063568
      5          6           0       -1.311428    1.174508    4.378414
      6          6           0       -1.715063   -0.082111    4.933581
      7          6           0       -1.579637   -0.401155    6.308704
      8          6           0       -1.975030   -1.644762    6.805096
      9          6           0       -2.516299   -2.613188    5.935838
     10          8           0       -2.909274   -3.840114    6.384844
     11          6           0       -2.660952   -2.321480    4.569781
     12          6           0       -2.259812   -1.075085    4.079915
     13          1           0       -0.201434    4.441627    2.805409
     14          1           0       -1.364657    2.384518    6.096071
     15          1           0       -1.128007    1.192180    3.336738
     16          1           0       -1.159426    0.297202    6.994001
     17          1           0       -1.860527   -1.858652    7.843437
     18          1           0       -2.688407   -3.903366    7.335631
     19          1           0       -3.073409   -3.049823    3.910672
     20          1           0       -2.380705   -0.878814    3.038514
 ---------------------------------------------------------------------
                    Distance matrix (angstroms):
                    1          2          3          4          5
     1  O    0.000000
     2  C    1.251449   0.000000
     3  O    2.263259   1.355571   0.000000
     4  C    2.335169   1.419995   2.376990   0.000000
     5  C    3.590631   2.459621   2.820120   1.362362   0.000000
     6  C    4.825327   3.802661   4.250405   2.490467   1.431860
     7  C    5.232359   4.448807   5.196289   3.041839   2.506127
     8  C    6.611005   5.838561   6.545206   4.426441   3.778550
     9  C    7.511385   6.591965   7.083340   5.211183   4.268950
    10  O    8.843579   7.948729   8.444855   6.559488   5.632523
    11  C    7.252595   6.192584   6.441521   4.924080   3.752302
    12  C    6.016733   4.898593   5.061070   3.722228   2.459513
    13  H    2.387898   1.962151   0.975631   3.228923   3.792162
    14  H    2.532541   2.099445   3.300589   1.053365   2.101738
    15  H    3.904504   2.660493   2.472622   2.075043   1.057849
    16  H    4.719543   4.146333   5.099741   2.812306   2.762982
    17  H    7.115462   6.481332   7.312541   5.085866   4.637667
    18  H    9.030699   8.230837   8.849058   6.819510   6.035397
    19  H    8.142466   7.036989   7.150179   5.836442   4.600906
    20  H    6.143909   4.950315   4.837819   3.995715   2.674849
                    6          7          8          9         10
     6  C    0.000000
     7  C    1.418130   0.000000
     8  C    2.451944   1.396173   0.000000
     9  C    2.837755   2.430938   1.409408   0.000000
    10  O    4.201772   3.687842   2.422601   1.364325   0.000000
    11  C    2.458013   2.807267   2.434146   1.404326   2.379573
    12  C    1.418272   2.425763   2.798615   2.424046   3.657852
    13  H    5.223446   6.133926   7.495816   8.057829   9.419765
    14  H    2.749259   2.802035   4.136468   5.131181   6.419912
    15  H    2.125644   3.402245   4.560175   4.812848   6.147182
    16  H    2.167473   1.064852   2.114738   3.381003   4.533257
    17  H    3.412407   2.135089   1.066308   2.153670   2.674613
    18  H    4.617276   3.814372   2.427276   1.911440   0.978151
    19  H    3.420345   3.872642   3.399753   2.145302   2.602504
    20  H    2.160809   3.400590   3.865021   3.379486   4.499623
                   11         12         13         14         15
    11  C    0.000000
    12  C    1.397992   0.000000
    13  H    7.409578   6.024566   0.000000
    14  H    5.114328   4.103053   4.051326   0.000000
    15  H    4.026924   2.640793   3.420490   3.015226   0.000000
    16  H    3.871552   3.403810   5.969783   2.281509   3.765308
    17  H    3.401722   3.864907   8.235765   4.615589   5.491311
    18  H    3.186385   4.333885   9.815643   6.544181   6.662626
    19  H    1.065378   2.142468   8.098868   6.101464   4.701976
    20  H    2.122404   1.066608   5.754186   4.585885   2.438690
                   16         17         18         19         20
    16  H    0.000000
    17  H    2.420907   0.000000
    18  H    4.483220   2.263649   0.000000
    19  H    4.936884   4.284461   3.550649   0.000000
    20  H    4.303535   4.931324   5.263821   2.440036   0.000000
 Stoichiometry    C9H8O3
 Framework group  C1[X(C9H8O3)]
 Deg. of freedom    54
 Full point group                 C1      NOp   1
 RotChk:  IX=0 Diff= 2.19D-03
 Largest Abelian subgroup         C1      NOp   1
 Largest concise Abelian subgroup C1      NOp   1
                         Standard orientation:                         
 ---------------------------------------------------------------------
 Center     Atomic      Atomic             Coordinates (Angstroms)
 Number     Number       Type             X           Y           Z
 ---------------------------------------------------------------------
      1          8           0       -4.272830   -1.092910   -0.272211
      2          6           0       -3.423973   -0.198729   -0.057721
      3          8           0       -3.816965    1.059639    0.257940
      4          6           0       -2.029924   -0.457647   -0.135011
      5          6           0       -1.063065    0.471065    0.107289
      6          6           0        0.350526    0.248322    0.058624
      7          6           0        0.938104   -1.034891    0.197227
      8          6           0        2.323337   -1.204443    0.156202
      9          6           0        3.166984   -0.089422   -0.021046
     10          8           0        4.524734   -0.216854   -0.061767
     11          6           0        2.609561    1.191920   -0.160947
     12          6           0        1.221715    1.353830   -0.115664
     13          1           0       -4.785655    1.168099    0.299547
     14          1           0       -1.767929   -1.441329   -0.405759
     15          1           0       -1.377364    1.453721    0.341057
     16          1           0        0.335480   -1.899431    0.349950
     17          1           0        2.738486   -2.180619    0.264571
     18          1           0        4.749616   -1.153358    0.109016
     19          1           0        3.244253    2.036387   -0.299049
     20          1           0        0.824006    2.337487   -0.224747
 ---------------------------------------------------------------------
[...]
 One-electron integrals computed using PRISM.
 PrsmSu:  requested number of processors reduced to:  28 ShMem   1 Linda.
 NBasis=   276 RedAO= T EigKep=  1.00D-05  NBF=   276
 NBsUse=   276 1.00D-06 EigRej= -1.00D+00 NBFU=   276
 Initial guess from the checkpoint file:  "NGSWKAQJJWESNS-ZZXKWVIFSA-N.chk"
 B after Tr=     0.000000    0.000000    0.000000
         Rot=    1.000000    0.000000   -0.000000   -0.000000 Ang=   0.00 deg.
 Requested convergence on RMS density matrix=1.00D-08 within 128 cycles.
 Requested convergence on MAX density matrix=1.00D-06.
 Requested convergence on             energy=1.00D-06.
 No special actions if energy rises.
 Inv3:  Mode=1 IEnd=     6324912.
 Iteration    1 A*A^-1 deviation from unit magnitude is 1.42D-14 for   1014.
 Iteration    1 A*A^-1 deviation from orthogonality  is 6.22D-15 for   1310   1016.
 Iteration    1 A^-1*A deviation from unit magnitude is 1.24D-14 for   1014.
 Iteration    1 A^-1*A deviation from orthogonality  is 2.44D-15 for   1308   1024.
 EnCoef did     4 forward-backward iterations
 Error on nuclear    polarization charges =  0.02476
 Error on electronic polarization charges = -0.05449
 SCF Done:  E(RB-P86) =  -573.679063826     A.U. after   11 cycles
            NFock= 11  Conv=0.65D-08     -V/T= 2.0044
 --------------------------------------------------------------------
 Variational C-PCM results
 =========================
 <psi(f)|   H    |psi(f)>                     (a.u.) =    -573.650895
 <psi(f)|H+V(f)/2|psi(f)>                     (a.u.) =    -573.679064
 Total free energy in solution:
 - with all non electrostatic terms           (a.u.) =    -573.665696
 --------------------------------------------------------------------
 (Polarized solute)-Solvent               (kcal/mol) =     -17.68
 --------------------------------------------------------------------
 Cavitation energy                        (kcal/mol) =      25.59
 Dispersion energy                        (kcal/mol) =     -18.69
 Repulsion energy                         (kcal/mol) =       1.49
 Total non electrostatic                  (kcal/mol) =       8.39
 --------------------------------------------------------------------
 Partition over spheres:
 Sphere  on Atom  Surface  Charge   GEl     GCav    GDR
    1      O1      20.45   0.267   -5.45    2.54   -1.77
    2      C2      10.76  -0.014   -0.02    1.26   -0.75
    3      O3      14.74   0.093   -0.92    1.83   -1.28
    4      C4      12.21   0.021   -0.15    1.43   -0.86
    5      C5      11.26   0.011   -0.11    1.32   -0.82
    6      C6       5.72   0.020   -0.07    0.67   -0.35
    7      C7      12.49   0.016   -0.12    1.47   -0.94
    8      C8      13.36   0.006   -0.41    1.57   -1.03
    9      C9       7.93   0.002   -0.12    0.93   -0.53
   10      O10     16.08   0.112   -0.94    2.00   -1.49
   11      C11     13.69   0.022   -0.11    1.61   -1.02
   12      C12     12.82   0.017   -0.15    1.51   -0.97
   13      H13      8.38  -0.146   -1.99    1.18   -0.88
   14      H14      5.69  -0.044   -0.29    0.80   -0.51
   15      H15      5.61  -0.041   -0.27    0.79   -0.41
   16      H16      5.60  -0.047   -0.58    0.79   -0.56
   17      H17      6.45  -0.053   -1.04    0.91   -0.73
   18      H18      8.13  -0.150   -4.05    1.15   -0.82
   19      H19      6.43  -0.047   -0.39    0.91   -0.77
   20      H20      6.41  -0.047   -0.51    0.90   -0.72
 --------------------------------------------------------------------
 - cavitation energy not included in the total energy.
 - dispersion energy not included in the total energy.
 - repulsion  energy not included in the total energy.
 After PCM corrections, the energy is  -573.679063826     a.u.
 --------------------------------------------------------------------
 Writing COSMO formatted file "NGSWKAQJJWESNS-ZZXKWVIFSA-N.cosmo"
 Recomputed dielectric energy= -0.028217 old= -0.028169 diff=-4.75D-05

 **********************************************************************

            Population analysis using the SCF Density.

 **********************************************************************

 Orbital symmetries:
       Occupied  (A) (A) (A) (A) (A) (A) (A) (A) (A) (A) (A) (A)
                 (A) (A) (A) (A) (A) (A) (A) (A) (A) (A) (A) (A)
                 (A) (A) (A) (A) (A) (A) (A) (A) (A) (A) (A) (A)
                 (A) (A) (A) (A) (A) (A) (A)
       Virtual   (A) (A) (A) (A) (A) (A) (A) (A) (A) (A) (A) (A)
                 (A) (A) (A) (A) (A) (A) (A) (A) (A) (A) (A) (A)
                 (A) (A) (A) (A) (A) (A) (A) (A) (A) (A) (A) (A)
                 (A) (A) (A) (A) (A) (A) (A) (A) (A) (A) (A) (A)
                 (A) (A) (A) (A) (A) (A) (A) (A) (A) (A) (A) (A)
                 (A) (A) (A) (A) (A) (A) (A) (A) (A) (A) (A) (A)
                 (A) (A) (A) (A) (A) (A) (A) (A) (A) (A) (A) (A)
                 (A) (A) (A) (A) (A) (A) (A) (A) (A) (A) (A) (A)
                 (A) (A) (A) (A) (A) (A) (A) (A) (A) (A) (A) (A)
                 (A) (A) (A) (A) (A) (A) (A) (A) (A) (A) (A) (A)
                 (A) (A) (A) (A) (A) (A) (A) (A) (A) (A) (A) (A)
                 (A) (A) (A) (A) (A) (A) (A) (A) (A) (A) (A) (A)
                 (A) (A) (A) (A) (A) (A) (A) (A) (A) (A) (A) (A)
                 (A) (A) (A) (A) (A) (A) (A) (A) (A) (A) (A) (A)
                 (A) (A) (A) (A) (A) (A) (A) (A) (A) (A) (A) (A)
                 (A) (A) (A) (A) (A) (A) (A) (A) (A) (A) (A) (A)
                 (A) (A) (A) (A) (A) (A) (A) (A) (A) (A) (A) (A)
                 (A) (A) (A) (A) (A) (A) (A) (A) (A) (A) (A) (A)
                 (A) (A) (A) (A) (A) (A) (A) (A) (A) (A) (A) (A)
                 (A) (A) (A) (A) (A)
 The electronic state is 1-A.
 Alpha  occ. eigenvalues --  -18.81432 -18.81366 -18.76322 -10.02835  -9.97741
 Alpha  occ. eigenvalues --   -9.92816  -9.92097  -9.91737  -9.91677  -9.91329
 Alpha  occ. eigenvalues --   -9.91221  -9.90938  -1.01471  -0.98866  -0.93128
 Alpha  occ. eigenvalues --   -0.79688  -0.74026  -0.69422  -0.68401  -0.60812
 Alpha  occ. eigenvalues --   -0.57571  -0.55662  -0.52491  -0.50582  -0.46286
 Alpha  occ. eigenvalues --   -0.45227  -0.43107  -0.41793  -0.40495  -0.40480
 Alpha  occ. eigenvalues --   -0.38676  -0.38183  -0.36589  -0.35452  -0.34982
 Alpha  occ. eigenvalues --   -0.33130  -0.33113  -0.30608  -0.28783  -0.26905
 Alpha  occ. eigenvalues --   -0.24715  -0.24659  -0.20667
 Alpha virt. eigenvalues --   -0.10587  -0.05611  -0.02444   0.02916   0.03212
 Alpha virt. eigenvalues --    0.03274   0.04698   0.05386   0.08821   0.08959
 Alpha virt. eigenvalues --    0.09768   0.10616   0.10797   0.12225   0.14119
 Alpha virt. eigenvalues --    0.15260   0.15305   0.16838   0.17046   0.18358
 Alpha virt. eigenvalues --    0.19564   0.19804   0.21517   0.21582   0.22052
 Alpha virt. eigenvalues --    0.22195   0.22816   0.23363   0.24505   0.26695
 Alpha virt. eigenvalues --    0.27528   0.28714   0.29233   0.29704   0.30532
 Alpha virt. eigenvalues --    0.31104   0.32283   0.33136   0.33263   0.33466
 Alpha virt. eigenvalues --    0.34427   0.35259   0.36326   0.37374   0.39057
 Alpha virt. eigenvalues --    0.39329   0.40015   0.40853   0.41862   0.42838
 Alpha virt. eigenvalues --    0.43807   0.44700   0.45274   0.46024   0.46442
 Alpha virt. eigenvalues --    0.47561   0.49175   0.50371   0.50909   0.52283
 Alpha virt. eigenvalues --    0.54889   0.55019   0.56704   0.57187   0.57681
 Alpha virt. eigenvalues --    0.59527   0.62069   0.62961   0.64480   0.64990
 Alpha virt. eigenvalues --    0.66512   0.67981   0.71087   0.74587   0.75727
 Alpha virt. eigenvalues --    0.77654   0.79619   0.82643   0.84033   0.89870
 Alpha virt. eigenvalues --    0.91078   1.12542   1.12779   1.14985   1.17216
 Alpha virt. eigenvalues --    1.18045   1.18512   1.19383   1.20240   1.22074
 Alpha virt. eigenvalues --    1.22353   1.22665   1.23172   1.25514   1.26385
 Alpha virt. eigenvalues --    1.29060   1.30319   1.30966   1.31413   1.32164
 Alpha virt. eigenvalues --    1.34055   1.34897   1.34955   1.35745   1.35751
 Alpha virt. eigenvalues --    1.36930   1.37831   1.39211   1.39644   1.39743
 Alpha virt. eigenvalues --    1.42166   1.42273   1.42298   1.44162   1.46185
 Alpha virt. eigenvalues --    1.46758   1.47099   1.49355   1.50499   1.52200
 Alpha virt. eigenvalues --    1.53085   1.56877   1.61741   1.62657   1.65109
 Alpha virt. eigenvalues --    1.69261   1.69692   1.71399   1.73353   1.74819
 Alpha virt. eigenvalues --    1.76675   1.78524   1.79873   1.80634   1.80714
 Alpha virt. eigenvalues --    1.82047   1.83198   1.84001   1.87022   1.90140
 Alpha virt. eigenvalues --    1.91585   1.92449   1.92776   1.92779   1.97055
 Alpha virt. eigenvalues --    1.98570   1.99774   2.07258   2.09895   2.11177
 Alpha virt. eigenvalues --    2.12505   2.13139   2.15269   2.17572   2.18183
 Alpha virt. eigenvalues --    2.21329   2.22018   2.24636   2.24846   2.26088
 Alpha virt. eigenvalues --    2.26737   2.28587   2.30059   2.36927   2.38038
 Alpha virt. eigenvalues --    2.40749   2.43619   2.46242   2.47671   2.47966
 Alpha virt. eigenvalues --    2.49366   2.51008   2.52060   2.53384   2.54827
 Alpha virt. eigenvalues --    2.55830   2.56616   2.57660   2.57845   2.59583
 Alpha virt. eigenvalues --    2.60665   2.61007   2.63282   2.67275   2.69695
 Alpha virt. eigenvalues --    2.73081   2.73448   2.80464   2.82497   2.83492
 Alpha virt. eigenvalues --    2.85315   2.88736   2.88814   2.91284   2.93351
 Alpha virt. eigenvalues --    2.95579   2.97272   2.99689   3.00352   3.03033
 Alpha virt. eigenvalues --    3.05260   3.05784   3.09227   3.09539   3.11389
 Alpha virt. eigenvalues --    3.12968   3.14050   3.15958   3.18287   3.24714
 Alpha virt. eigenvalues --    3.26588   3.32620   3.33166   3.43883   3.49017
 Alpha virt. eigenvalues --    3.57627   3.81243   3.93670   4.09378   4.18751
 Alpha virt. eigenvalues --    4.19204  21.02053  21.37557  21.55856  21.58208
 Alpha virt. eigenvalues --   21.73421  21.78594  21.81449  21.89297  21.95218
 Alpha virt. eigenvalues --   43.06972  43.13286  43.13901
          Condensed to atoms (all electrons):
               1          2          3          4          5          6
     1  O    8.004180   0.626627  -0.107442  -0.168363   0.023750  -0.002112
     2  C    0.626627   4.800840   0.360306   0.021224   0.086962   0.007892
     3  O   -0.107442   0.360306   7.911817  -0.231834   0.051511   0.001525
     4  C   -0.168363   0.021224  -0.231834   6.150663  -0.040013   0.073066
     5  C    0.023750   0.086962   0.051511  -0.040013   5.826279   0.022507
     6  C   -0.002112   0.007892   0.001525   0.073066   0.022507   5.512809
     7  C    0.000035   0.002730   0.000009  -0.016632  -0.122446   0.285259
     8  C   -0.000012  -0.001539  -0.000004   0.001839   0.052273   0.054707
     9  C    0.000000   0.000051  -0.000000   0.000599  -0.002871  -0.130911
    10  O   -0.000000   0.000000   0.000000  -0.000002   0.000010  -0.000685
    11  C   -0.000000   0.000284   0.000008  -0.006154   0.030478   0.032410
    12  C    0.000017  -0.003470  -0.000207   0.034791  -0.111652   0.336390
    13  H    0.002908  -0.022995   0.288250   0.027342  -0.004071   0.000157
    14  H    0.008085  -0.057163   0.004183   0.387340   0.012094  -0.031362
    15  H    0.000806  -0.011632   0.015536  -0.077123   0.436596  -0.051533
    16  H   -0.000141   0.000475  -0.000017   0.015136  -0.041295  -0.036687
    17  H   -0.000000  -0.000003   0.000000   0.000220  -0.001554   0.012610
    18  H    0.000000  -0.000000   0.000000   0.000001  -0.000018  -0.000485
    19  H    0.000000  -0.000000   0.000000   0.000048  -0.000950   0.015170
    20  H   -0.000001  -0.000350  -0.000068   0.003616  -0.019070  -0.088314
               7          8          9         10         11         12
     1  O    0.000035  -0.000012   0.000000  -0.000000  -0.000000   0.000017
     2  C    0.002730  -0.001539   0.000051   0.000000   0.000284  -0.003470
     3  O    0.000009  -0.000004  -0.000000   0.000000   0.000008  -0.000207
     4  C   -0.016632   0.001839   0.000599  -0.000002  -0.006154   0.034791
     5  C   -0.122446   0.052273  -0.002871   0.000010   0.030478  -0.111652
     6  C    0.285259   0.054707  -0.130911  -0.000685   0.032410   0.336390
     7  C    5.569027  -0.049125   0.127011   0.021014  -0.056295  -0.104883
     8  C   -0.049125   5.818150   0.185110  -0.109230  -0.076326  -0.055268
     9  C    0.127011   0.185110   5.068007   0.379532   0.358846   0.008502
    10  O    0.021014  -0.109230   0.379532   7.774468  -0.076536   0.006569
    11  C   -0.056295  -0.076326   0.358846  -0.076536   5.319435   0.305397
    12  C   -0.104883  -0.055268   0.008502   0.006569   0.305397   5.298314
    13  H    0.000004  -0.000000  -0.000000  -0.000000  -0.000000  -0.000024
    14  H    0.009910   0.001868  -0.000028  -0.000000   0.000038   0.001489
    15  H    0.015825  -0.001036  -0.000014   0.000001   0.002701  -0.012425
    16  H    0.409200  -0.032758   0.008747  -0.000123  -0.000284   0.010687
    17  H   -0.020453   0.409078  -0.062261  -0.005428   0.004728   0.002977
    18  H    0.005810  -0.023510  -0.023353   0.306637   0.011936  -0.001369
    19  H   -0.003702   0.015353  -0.082630   0.003475   0.430565  -0.037835
    20  H    0.018962  -0.005518   0.021414  -0.000136  -0.068441   0.464649
              13         14         15         16         17         18
     1  O    0.002908   0.008085   0.000806  -0.000141  -0.000000   0.000000
     2  C   -0.022995  -0.057163  -0.011632   0.000475  -0.000003  -0.000000
     3  O    0.288250   0.004183   0.015536  -0.000017   0.000000   0.000000
     4  C    0.027342   0.387340  -0.077123   0.015136   0.000220   0.000001
     5  C   -0.004071   0.012094   0.436596  -0.041295  -0.001554  -0.000018
     6  C    0.000157  -0.031362  -0.051533  -0.036687   0.012610  -0.000485
     7  C    0.000004   0.009910   0.015825   0.409200  -0.020453   0.005810
     8  C   -0.000000   0.001868  -0.001036  -0.032758   0.409078  -0.023510
     9  C   -0.000000  -0.000028  -0.000014   0.008747  -0.062261  -0.023353
    10  O   -0.000000  -0.000000   0.000001  -0.000123  -0.005428   0.306637
    11  C   -0.000000   0.000038   0.002701  -0.000284   0.004728   0.011936
    12  C   -0.000024   0.001489  -0.012425   0.010687   0.002977  -0.001369
    13  H    0.380406  -0.000358  -0.000395   0.000001   0.000000  -0.000000
    14  H   -0.000358   0.467168   0.003650   0.004834   0.000010   0.000000
    15  H   -0.000395   0.003650   0.503828   0.000205  -0.000002   0.000000
    16  H    0.000001   0.004834   0.000205   0.506456  -0.004668  -0.000037
    17  H    0.000000   0.000010  -0.000002  -0.004668   0.496269   0.000945
    18  H   -0.000000   0.000000   0.000000  -0.000037   0.000945   0.388386
    19  H   -0.000000   0.000001   0.000003   0.000045  -0.000157  -0.000531
    20  H    0.000000  -0.000009   0.001899  -0.000035   0.000028   0.000029
              19         20
     1  O    0.000000  -0.000001
     2  C   -0.000000  -0.000350
     3  O    0.000000  -0.000068
     4  C    0.000048   0.003616
     5  C   -0.000950  -0.019070
     6  C    0.015170  -0.088314
     7  C   -0.003702   0.018962
     8  C    0.015353  -0.005518
     9  C   -0.082630   0.021414
    10  O    0.003475  -0.000136
    11  C    0.430565  -0.068441
    12  C   -0.037835   0.464649
    13  H   -0.000000   0.000000
    14  H    0.000001  -0.000009
    15  H    0.000003   0.001899
    16  H    0.000045  -0.000035
    17  H   -0.000157   0.000028
    18  H   -0.000531   0.000029
    19  H    0.510179  -0.007911
    20  H   -0.007911   0.526844
 Mulliken charges:
               1
     1  O   -0.388337
     2  C    0.189762
     3  O   -0.293572
     4  C   -0.175763
     5  C   -0.198518
     6  C   -0.012413
     7  C   -0.091260
     8  C   -0.184052
     9  C    0.144252
    10  O   -0.299566
    11  C   -0.212787
    12  C   -0.142649
    13  H    0.328775
    14  H    0.188251
    15  H    0.173111
    16  H    0.160257
    17  H    0.167660
    18  H    0.335559
    19  H    0.158878
    20  H    0.152412
 Sum of Mulliken charges =  -0.00000
 Mulliken charges with hydrogens summed into heavy atoms:
               1
     1  O   -0.388337
     2  C    0.189762
     3  O    0.035203
     4  C    0.012488
     5  C   -0.025407
     6  C   -0.012413
     7  C    0.068997
     8  C   -0.016391
     9  C    0.144252
    10  O    0.035993
    11  C   -0.053910
    12  C    0.009764
 Electronic spatial extent (au):  <R**2>=           3155.2354
 Charge=             -0.0000 electrons
 Dipole moment (field-independent basis, Debye):
    X=              5.2440    Y=              0.1963    Z=             -0.0004  Tot=              5.2477
 Quadrupole moment (field-independent basis, Debye-Ang):
   XX=            -72.2647   YY=            -61.2189   ZZ=            -73.7005
   XY=            -22.0888   XZ=             -0.0159   YZ=             -0.0135
 Traceless Quadrupole moment (field-independent basis, Debye-Ang):
   XX=             -3.2034   YY=              7.8425   ZZ=             -4.6391
   XY=            -22.0888   XZ=             -0.0159   YZ=             -0.0135
 Octapole moment (field-independent basis, Debye-Ang**2):
  XXX=             65.7917  YYY=              0.7700  ZZZ=             -0.0019  XYY=             31.2464
  XXY=             20.5423  XXZ=              0.0266  XZZ=             -8.6256  YZZ=             -0.4289
  YYZ=              0.0003  XYZ=              0.0307
 Hexadecapole moment (field-independent basis, Debye-Ang**3):
 XXXX=          -3366.8545 YYYY=           -408.5165 ZZZZ=            -79.2262 XXXY=           -603.6915
 XXXZ=             -0.4514 YYYX=            -51.3975 YYYZ=             -0.0397 ZZZX=             -0.0002
 ZZZY=              0.0127 XXYY=           -588.0744 XXZZ=           -607.8417 YYZZ=            -96.9605
 XXYZ=             -0.1263 YYXZ=             -0.0268 ZZXY=             -6.5885
 N-N= 6.139605812007D+02 E-N=-2.568569821544D+03  KE= 5.711615957094D+02
 Unable to Open any file for archive entry.
 1\1\GINC-TCN1632\SP\RBP86\TZVP\C9H8O3\ELENAA\22-Feb-2021\0\\# BP86/TZV
 P SCRF=COSMORS geom=CHECKPOINT guess=CHECKPOINT\\COSMO-file for #NGSWK
 AQJJWESNS-ZZXKWVIFSA-N\\0,1\O,0,-0.2440500231,4.5821778563,5.076792184
 9\C,0,-0.6232085281,3.5879061559,4.4561807607\O,0,-0.748599629,3.59706
 01539,3.0899597453\C,0,-0.974221423,2.3158017846,5.0871776144\C,0,-1.3
 947833415,1.2163591112,4.409393815\C,0,-1.7603990429,-0.0771062269,4.9
 635848896\C,0,-1.7233699684,-0.3720446913,6.3472647214\C,0,-2.08305887
 39,-1.6253633845,6.8270214102\C,0,-2.4944981233,-2.6309297119,5.929439
 8512\O,0,-2.8600253437,-3.8820978359,6.339512241\C,0,-2.5400433128,-2.
 3638805091,4.5512432152\C,0,-2.1773375564,-1.1051810652,4.0841211475\H
 ,0,-0.488359808,4.4926942033,2.7896951427\H,0,-0.8679272981,2.32432751
 18,6.1732960886\H,0,-1.4732464592,1.2957113615,3.3199206366\H,0,-1.408
 4599036,0.3888998025,7.0635497537\H,0,-2.048304223,-1.8352666592,7.898
 9905995\H,0,-2.7883268182,-3.9449675007,7.3110645324\H,0,-2.860155775,
 -3.1499306134,3.8655534634\H,0,-2.2153745489,-0.904989743,3.0104681865
 \\Version=ES64L-G16RevC.01\State=1-A\HF=-573.6790638\RMSD=6.456e-09\Di
 pole=-0.5863755,-1.9350716,0.417369\Quadrupole=-4.5638775,-8.2972198,1
 2.8610973,-2.7381428,-2.4586955,-12.4256918\PG=C01 [X(C9H8O3)]\\@
 The archive entry for this job was punched.


 WHEN A MATHEMATICIAN ENGAGED IN INVESTIGATING
 PHYSICAL ACTIONS AND RESULTS HAS ARRIVED AT HIS
 CONCLUSIONS, MAY THEY NOT BE EXPRESSED IN COMMON
 LANGUAGE AS FULLY, CLEARLY, AND DEFINITELY AS IN
 MATHEMATICAL FORMULAE?
           - LETTER FROM M. FARADAY TO J.C. MAXWELL, 1857.
 Job cpu time:       0 days  0 hours  6 minutes 28.8 seconds.
 Elapsed time:       0 days  0 hours  0 minutes 12.7 seconds.
 File lengths (MBytes):  RWF=     63 Int=      0 D2E=      0 Chk=     10 Scr=      1
 Normal termination of Gaussian 16 at Mon Feb 22 21:18:27 2021.
