 Entering Gaussian System, Link 0=g16
 Input=NHGXDBSUJJNIRV-UHFFFAOYSA-M.gjf
 Output=NHGXDBSUJJNIRV-UHFFFAOYSA-M.log
 Initial command:
 /sw/arch/RedHatEnterpriseServer7/EB_production/2020/software/Gaussian/g16.c01/l1.exe "/scratch-local/elenaa.10684697/Gau-1706.inp" -scrdir="/scratch-local/elenaa.10684697/"
 Entering Link 1 = /sw/arch/RedHatEnterpriseServer7/EB_production/2020/software/Gaussian/g16.c01/l1.exe PID=      1708.
  
 Copyright (c) 1988-2019, Gaussian, Inc.  All Rights Reserved.
  
 This is part of the Gaussian(R) 16 program.  It is based on
 the Gaussian(R) 09 system (copyright 2009, Gaussian, Inc.),
 the Gaussian(R) 03 system (copyright 2003, Gaussian, Inc.),
 the Gaussian(R) 98 system (copyright 1998, Gaussian, Inc.),
 the Gaussian(R) 94 system (copyright 1995, Gaussian, Inc.),
 the Gaussian 92(TM) system (copyright 1992, Gaussian, Inc.),
 the Gaussian 90(TM) system (copyright 1990, Gaussian, Inc.),
 the Gaussian 88(TM) system (copyright 1988, Gaussian, Inc.),
 the Gaussian 86(TM) system (copyright 1986, Carnegie Mellon
 University), and the Gaussian 82(TM) system (copyright 1983,
 Carnegie Mellon University). Gaussian is a federally registered
 trademark of Gaussian, Inc.
  
 This software contains proprietary and confidential information,
 including trade secrets, belonging to Gaussian, Inc.
  
 This software is provided under written license and may be
 used, copied, transmitted, or stored only in accord with that
 written license.
  
 The following legend is applicable only to US Government
 contracts under FAR:
  
                    RESTRICTED RIGHTS LEGEND
  
 Use, reproduction and disclosure by the US Government is
 subject to restrictions as set forth in subparagraphs (a)
 and (c) of the Commercial Computer Software - Restricted
 Rights clause in FAR 52.227-19.
  
 Gaussian, Inc.
 340 Quinnipiac St., Bldg. 40, Wallingford CT 06492
  
  
 ---------------------------------------------------------------
 Warning -- This program may not be used in any manner that
 competes with the business of Gaussian, Inc. or will provide
 assistance to any competitor of Gaussian, Inc.  The licensee
 of this program is prohibited from giving any competitor of
 Gaussian, Inc. access to this program.  By using this program,
 the user acknowledges that Gaussian, Inc. is engaged in the
 business of creating and licensing software in the field of
 computational chemistry and represents and warrants to the
 licensee that it is not a competitor of Gaussian, Inc. and that
 it will not use this program in any manner prohibited above.
 ---------------------------------------------------------------
  

 Cite this work as:
 Gaussian 16, Revision C.01,
 M. J. Frisch, G. W. Trucks, H. B. Schlegel, G. E. Scuseria, 
 M. A. Robb, J. R. Cheeseman, G. Scalmani, V. Barone, 
 G. A. Petersson, H. Nakatsuji, X. Li, M. Caricato, A. V. Marenich, 
 J. Bloino, B. G. Janesko, R. Gomperts, B. Mennucci, H. P. Hratchian, 
 J. V. Ortiz, A. F. Izmaylov, J. L. Sonnenberg, D. Williams-Young, 
 F. Ding, F. Lipparini, F. Egidi, J. Goings, B. Peng, A. Petrone, 
 T. Henderson, D. Ranasinghe, V. G. Zakrzewski, J. Gao, N. Rega, 
 G. Zheng, W. Liang, M. Hada, M. Ehara, K. Toyota, R. Fukuda, 
 J. Hasegawa, M. Ishida, T. Nakajima, Y. Honda, O. Kitao, H. Nakai, 
 T. Vreven, K. Throssell, J. A. Montgomery, Jr., J. E. Peralta, 
 F. Ogliaro, M. J. Bearpark, J. J. Heyd, E. N. Brothers, K. N. Kudin, 
 V. N. Staroverov, T. A. Keith, R. Kobayashi, J. Normand, 
 K. Raghavachari, A. P. Rendell, J. C. Burant, S. S. Iyengar, 
 J. Tomasi, M. Cossi, J. M. Millam, M. Klene, C. Adamo, R. Cammi, 
 J. W. Ochterski, R. L. Martin, K. Morokuma, O. Farkas, 
 J. B. Foresman, and D. J. Fox, Gaussian, Inc., Wallingford CT, 2019.
 
 ******************************************
 Gaussian 16:  ES64L-G16RevC.01  3-Jul-2019
                21-Aug-2021 
 ******************************************
 %chk=NHGXDBSUJJNIRV-UHFFFAOYSA-M.chk
 %NProcShared=24
 Will use up to   24 processors via shared memory.
 -------------------------------------------------------------
 #P BP86/TZVP EmpiricalDispersion=GD3 SCRF=(Solvent=Water) Opt
 -------------------------------------------------------------
 1/18=20,19=15,26=3,38=1/1,3;
 2/9=110,12=2,17=6,18=5,40=1/2;
 3/5=19,7=101,11=2,25=1,30=1,70=2201,71=1,72=1,74=404,124=31/1,2,3;
 4//1;
 5/5=2,38=5,53=1/2;
 6/7=2,8=2,9=2,10=2,28=1/1;
 7//1,2,3,16;
 1/18=20,19=15,26=3/3(2);
 2/9=110/2;
 99//99;
 2/9=110/2;
 3/5=19,7=101,11=2,25=1,30=1,70=2205,71=1,72=1,74=404,124=31/1,2,3;
 4/5=5,16=3,69=1/1;
 5/5=2,38=5,53=1/2;
 7//1,2,3,16;
 1/18=20,19=15,26=3/3(-5);
 2/9=110/2;
 6/7=2,8=2,9=2,10=2,19=2,28=1/1;
 99/9=1/99;
 Leave Link    1 at Sat Aug 21 09:32:12 2021, MaxMem=           0 cpu:               2.5 elap:               0.4
 (Enter /sw/arch/RedHatEnterpriseServer7/EB_production/2020/software/Gaussian/g16.c01/l101.exe)
 -------------------------------------
 Particle #NHGXDBSUJJNIRV-UHFFFAOYSA-M
 -------------------------------------
 Symbolic Z-matrix:
 Charge =  0 Multiplicity = 1
 C                     2.26395   3.83404   2.70373 
 C                     2.91856   2.58813   2.10724 
 C                     2.03164   1.89076   1.06271 
 C                     0.75851   1.26168   1.68757 
 N                     0.00255   0.29213   0.80919 
 C                    -1.45422   0.35112   1.19257 
 C                    -2.40257  -0.58499   0.39245 
 C                    -3.87871  -0.36843   0.7648 
 C                    -4.46563   0.89744   0.13896 
 C                     0.1202    0.67327  -0.63976 
 C                    -0.41638   2.08222  -1.03658 
 C                    -0.24894   2.3724   -2.53719 
 C                    -0.80792   3.74502  -2.90075 
 C                     0.55691  -1.08733   1.05431 
 C                     2.02279  -1.32673   0.59782 
 C                     2.49736  -2.72983   0.99985 
 C                     3.94218  -2.96914   0.57055 
 Cl                   -0.29483  -0.6713    4.47172 
 H                     1.39056   3.55694   3.32976 
 H                     2.99683   4.36242   3.34917 
 H                     1.93853   4.52641   1.89842 
 H                     3.18134   1.879     2.92199 
 H                     3.86615   2.89533   1.61371 
 H                     2.64992   1.10997   0.57684 
 H                     1.7515    2.63655   0.28829 
 H                     1.07017   0.76203   2.63161 
 H                     0.10026   2.09075   2.02209 
 H                    -1.82067   1.39738   1.13496 
 H                    -1.58771   0.06175   2.25656 
 H                    -2.29344  -0.46557  -0.70304 
 H                    -2.1597   -1.64075   0.63507 
 H                    -4.4658   -1.23776   0.39641 
 H                    -3.99742  -0.32933   1.86949 
 H                    -3.99106   1.80711   0.55989 
 H                    -4.32763   0.88639  -0.96317 
 H                    -5.55344   0.94485   0.35633 
 H                    -0.38429  -0.08073  -1.2785 
 H                     1.18298   0.66009  -0.94217 
 H                     0.16924   2.84782  -0.48027 
 H                    -1.47081   2.24038  -0.74306 
 H                    -0.77235   1.60383  -3.14288 
 H                     0.83053   2.34521  -2.80225 
 H                    -0.28249   4.53978  -2.32953 
 H                    -0.66086   3.93098  -3.98553 
 H                    -1.8952    3.78969  -2.67734 
 H                    -0.06239  -1.85755   0.54413 
 H                     0.4634   -1.35309   2.12313 
 H                     2.10383  -1.2552   -0.50566 
 H                     2.70838  -0.57483   1.03383 
 H                     2.42629  -2.85581   2.10137 
 H                     1.849    -3.49474   0.51939 
 H                     4.61639  -2.23428   1.05994 
 H                     4.03755  -2.87735  -0.53246 
 H                     4.25447  -3.99172   0.8701 
 
 Add virtual bond connecting atoms H26        and Cl18       Dist= 5.11D+00.
 Add virtual bond connecting atoms H29        and Cl18       Dist= 5.04D+00.
 Add virtual bond connecting atoms H47        and Cl18       Dist= 4.84D+00.
 ITRead=  0  0  0  0  0  0  0  0  0  0  0  0  0  0  0  0  0  0  0  0
 ITRead=  0  0  0  0  0  0  0  0  0  0  0  0  0  0  0  0  0  0  0  0
 ITRead=  0  0  0  0  0  0  0  0  0  0  0  0  0  0
 MicOpt= -1 -1 -1 -1 -1 -1 -1 -1 -1 -1 -1 -1 -1 -1 -1 -1 -1 -1 -1 -1
 MicOpt= -1 -1 -1 -1 -1 -1 -1 -1 -1 -1 -1 -1 -1 -1 -1 -1 -1 -1 -1 -1
 MicOpt= -1 -1 -1 -1 -1 -1 -1 -1 -1 -1 -1 -1 -1 -1
 NAtoms=     54 NQM=       54 NQMF=       0 NMMI=      0 NMMIF=      0
                NMic=       0 NMicF=      0.
                    Isotopes and Nuclear Properties:
 (Nuclear quadrupole moments (NQMom) in fm**2, nuclear magnetic moments (NMagM)
  in nuclear magnetons)

  Atom         1           2           3           4           5           6           7           8           9          10
 IAtWgt=          12          12          12          12          14          12          12          12          12          12
 AtmWgt=  12.0000000  12.0000000  12.0000000  12.0000000  14.0030740  12.0000000  12.0000000  12.0000000  12.0000000  12.0000000
 NucSpn=           0           0           0           0           2           0           0           0           0           0
 AtZEff=  -0.0000000  -0.0000000  -0.0000000  -0.0000000  -0.0000000  -0.0000000  -0.0000000  -0.0000000  -0.0000000  -0.0000000
 NQMom=    0.0000000   0.0000000   0.0000000   0.0000000   2.0440000   0.0000000   0.0000000   0.0000000   0.0000000   0.0000000
 NMagM=    0.0000000   0.0000000   0.0000000   0.0000000   0.4037610   0.0000000   0.0000000   0.0000000   0.0000000   0.0000000
 AtZNuc=   6.0000000   6.0000000   6.0000000   6.0000000   7.0000000   6.0000000   6.0000000   6.0000000   6.0000000   6.0000000

  Atom        11          12          13          14          15          16          17          18          19          20
 IAtWgt=          12          12          12          12          12          12          12          35           1           1
 AtmWgt=  12.0000000  12.0000000  12.0000000  12.0000000  12.0000000  12.0000000  12.0000000  34.9688527   1.0078250   1.0078250
 NucSpn=           0           0           0           0           0           0           0           3           1           1
 AtZEff=  -0.0000000  -0.0000000  -0.0000000  -0.0000000  -0.0000000  -0.0000000  -0.0000000  -0.0000000  -0.0000000  -0.0000000
 NQMom=    0.0000000   0.0000000   0.0000000   0.0000000   0.0000000   0.0000000   0.0000000  -8.1650000   0.0000000   0.0000000
 NMagM=    0.0000000   0.0000000   0.0000000   0.0000000   0.0000000   0.0000000   0.0000000   0.8218740   2.7928460   2.7928460
 AtZNuc=   6.0000000   6.0000000   6.0000000   6.0000000   6.0000000   6.0000000   6.0000000  17.0000000   1.0000000   1.0000000

  Atom        21          22          23          24          25          26          27          28          29          30
 IAtWgt=           1           1           1           1           1           1           1           1           1           1
 AtmWgt=   1.0078250   1.0078250   1.0078250   1.0078250   1.0078250   1.0078250   1.0078250   1.0078250   1.0078250   1.0078250
 NucSpn=           1           1           1           1           1           1           1           1           1           1
 AtZEff=  -0.0000000  -0.0000000  -0.0000000  -0.0000000  -0.0000000  -0.0000000  -0.0000000  -0.0000000  -0.0000000  -0.0000000
 NQMom=    0.0000000   0.0000000   0.0000000   0.0000000   0.0000000   0.0000000   0.0000000   0.0000000   0.0000000   0.0000000
 NMagM=    2.7928460   2.7928460   2.7928460   2.7928460   2.7928460   2.7928460   2.7928460   2.7928460   2.7928460   2.7928460
 AtZNuc=   1.0000000   1.0000000   1.0000000   1.0000000   1.0000000   1.0000000   1.0000000   1.0000000   1.0000000   1.0000000

  Atom        31          32          33          34          35          36          37          38          39          40
 IAtWgt=           1           1           1           1           1           1           1           1           1           1
 AtmWgt=   1.0078250   1.0078250   1.0078250   1.0078250   1.0078250   1.0078250   1.0078250   1.0078250   1.0078250   1.0078250
 NucSpn=           1           1           1           1           1           1           1           1           1           1
 AtZEff=  -0.0000000  -0.0000000  -0.0000000  -0.0000000  -0.0000000  -0.0000000  -0.0000000  -0.0000000  -0.0000000  -0.0000000
 NQMom=    0.0000000   0.0000000   0.0000000   0.0000000   0.0000000   0.0000000   0.0000000   0.0000000   0.0000000   0.0000000
 NMagM=    2.7928460   2.7928460   2.7928460   2.7928460   2.7928460   2.7928460   2.7928460   2.7928460   2.7928460   2.7928460
 AtZNuc=   1.0000000   1.0000000   1.0000000   1.0000000   1.0000000   1.0000000   1.0000000   1.0000000   1.0000000   1.0000000

  Atom        41          42          43          44          45          46          47          48          49          50
 IAtWgt=           1           1           1           1           1           1           1           1           1           1
 AtmWgt=   1.0078250   1.0078250   1.0078250   1.0078250   1.0078250   1.0078250   1.0078250   1.0078250   1.0078250   1.0078250
 NucSpn=           1           1           1           1           1           1           1           1           1           1
 AtZEff=  -0.0000000  -0.0000000  -0.0000000  -0.0000000  -0.0000000  -0.0000000  -0.0000000  -0.0000000  -0.0000000  -0.0000000
 NQMom=    0.0000000   0.0000000   0.0000000   0.0000000   0.0000000   0.0000000   0.0000000   0.0000000   0.0000000   0.0000000
 NMagM=    2.7928460   2.7928460   2.7928460   2.7928460   2.7928460   2.7928460   2.7928460   2.7928460   2.7928460   2.7928460
 AtZNuc=   1.0000000   1.0000000   1.0000000   1.0000000   1.0000000   1.0000000   1.0000000   1.0000000   1.0000000   1.0000000

  Atom        51          52          53          54
 IAtWgt=           1           1           1           1
 AtmWgt=   1.0078250   1.0078250   1.0078250   1.0078250
 NucSpn=           1           1           1           1
 AtZEff=  -0.0000000  -0.0000000  -0.0000000  -0.0000000
 NQMom=    0.0000000   0.0000000   0.0000000   0.0000000
 NMagM=    2.7928460   2.7928460   2.7928460   2.7928460
 AtZNuc=   1.0000000   1.0000000   1.0000000   1.0000000
 Leave Link  101 at Sat Aug 21 09:32:12 2021, MaxMem=   104857600 cpu:               2.6 elap:               0.1
 (Enter /sw/arch/RedHatEnterpriseServer7/EB_production/2020/software/Gaussian/g16.c01/l103.exe)

 GradGradGradGradGradGradGradGradGradGradGradGradGradGradGradGradGradGrad
 Berny optimization.
 Initialization pass.
                           ----------------------------
                           !    Initial Parameters    !
                           ! (Angstroms and Degrees)  !
 --------------------------                            --------------------------
 ! Name  Definition              Value          Derivative Info.                !
 --------------------------------------------------------------------------------
 ! R1    R(1,2)                  1.5286         estimate D2E/DX2                !
 ! R2    R(1,19)                 1.1097         estimate D2E/DX2                !
 ! R3    R(1,20)                 1.1104         estimate D2E/DX2                !
 ! R4    R(1,21)                 1.1108         estimate D2E/DX2                !
 ! R5    R(2,3)                  1.5375         estimate D2E/DX2                !
 ! R6    R(2,22)                 1.1116         estimate D2E/DX2                !
 ! R7    R(2,23)                 1.1117         estimate D2E/DX2                !
 ! R8    R(3,4)                  1.5515         estimate D2E/DX2                !
 ! R9    R(3,24)                 1.1081         estimate D2E/DX2                !
 ! R10   R(3,25)                 1.111          estimate D2E/DX2                !
 ! R11   R(4,5)                  1.511          estimate D2E/DX2                !
 ! R12   R(4,26)                 1.1127         estimate D2E/DX2                !
 ! R13   R(4,27)                 1.1102         estimate D2E/DX2                !
 ! R14   R(5,6)                  1.5075         estimate D2E/DX2                !
 ! R15   R(5,10)                 1.5029         estimate D2E/DX2                !
 ! R16   R(5,14)                 1.5068         estimate D2E/DX2                !
 ! R17   R(6,7)                  1.5543         estimate D2E/DX2                !
 ! R18   R(6,28)                 1.1101         estimate D2E/DX2                !
 ! R19   R(6,29)                 1.1107         estimate D2E/DX2                !
 ! R20   R(7,8)                  1.5377         estimate D2E/DX2                !
 ! R21   R(7,30)                 1.1074         estimate D2E/DX2                !
 ! R22   R(7,31)                 1.1102         estimate D2E/DX2                !
 ! R23   R(8,9)                  1.5292         estimate D2E/DX2                !
 ! R24   R(8,32)                 1.1118         estimate D2E/DX2                !
 ! R25   R(8,33)                 1.1117         estimate D2E/DX2                !
 ! R26   R(9,34)                 1.109          estimate D2E/DX2                !
 ! R27   R(9,35)                 1.1108         estimate D2E/DX2                !
 ! R28   R(9,36)                 1.1103         estimate D2E/DX2                !
 ! R29   R(10,11)                1.559          estimate D2E/DX2                !
 ! R30   R(10,37)                1.1095         estimate D2E/DX2                !
 ! R31   R(10,38)                1.105          estimate D2E/DX2                !
 ! R32   R(11,12)                1.5376         estimate D2E/DX2                !
 ! R33   R(11,39)                1.1129         estimate D2E/DX2                !
 ! R34   R(11,40)                1.1059         estimate D2E/DX2                !
 ! R35   R(12,13)                1.526          estimate D2E/DX2                !
 ! R36   R(12,41)                1.1097         estimate D2E/DX2                !
 ! R37   R(12,42)                1.1119         estimate D2E/DX2                !
 ! R38   R(13,43)                1.1109         estimate D2E/DX2                !
 ! R39   R(13,44)                1.1104         estimate D2E/DX2                !
 ! R40   R(13,45)                1.1109         estimate D2E/DX2                !
 ! R41   R(14,15)                1.5539         estimate D2E/DX2                !
 ! R42   R(14,46)                1.1122         estimate D2E/DX2                !
 ! R43   R(14,47)                1.1053         estimate D2E/DX2                !
 ! R44   R(15,16)                1.5348         estimate D2E/DX2                !
 ! R45   R(15,48)                1.1088         estimate D2E/DX2                !
 ! R46   R(15,49)                1.107          estimate D2E/DX2                !
 ! R47   R(16,17)                1.5261         estimate D2E/DX2                !
 ! R48   R(16,50)                1.111          estimate D2E/DX2                !
 ! R49   R(16,51)                1.1119         estimate D2E/DX2                !
 ! R50   R(17,52)                1.1109         estimate D2E/DX2                !
 ! R51   R(17,53)                1.1109         estimate D2E/DX2                !
 ! R52   R(17,54)                1.1104         estimate D2E/DX2                !
 ! R53   R(18,26)                2.7025         estimate D2E/DX2                !
 ! R54   R(18,29)                2.6675         estimate D2E/DX2                !
 ! R55   R(18,47)                2.5604         estimate D2E/DX2                !
 ! A1    A(2,1,19)             110.7108         estimate D2E/DX2                !
 ! A2    A(2,1,20)             109.3926         estimate D2E/DX2                !
 ! A3    A(2,1,21)             110.5242         estimate D2E/DX2                !
 ! A4    A(19,1,20)            108.0818         estimate D2E/DX2                !
 ! A5    A(19,1,21)            109.5154         estimate D2E/DX2                !
 ! A6    A(20,1,21)            108.5535         estimate D2E/DX2                !
 ! A7    A(1,2,3)              112.8149         estimate D2E/DX2                !
 ! A8    A(1,2,22)             109.5834         estimate D2E/DX2                !
 ! A9    A(1,2,23)             108.242          estimate D2E/DX2                !
 ! A10   A(3,2,22)             110.1784         estimate D2E/DX2                !
 ! A11   A(3,2,23)             108.3871         estimate D2E/DX2                !
 ! A12   A(22,2,23)            107.4668         estimate D2E/DX2                !
 ! A13   A(2,3,4)              112.5601         estimate D2E/DX2                !
 ! A14   A(2,3,24)             107.193          estimate D2E/DX2                !
 ! A15   A(2,3,25)             108.3314         estimate D2E/DX2                !
 ! A16   A(4,3,24)             110.4107         estimate D2E/DX2                !
 ! A17   A(4,3,25)             110.2432         estimate D2E/DX2                !
 ! A18   A(24,3,25)            107.9405         estimate D2E/DX2                !
 ! A19   A(3,4,5)              115.887          estimate D2E/DX2                !
 ! A20   A(3,4,26)             107.0948         estimate D2E/DX2                !
 ! A21   A(3,4,27)             107.764          estimate D2E/DX2                !
 ! A22   A(5,4,26)             110.1957         estimate D2E/DX2                !
 ! A23   A(5,4,27)             110.9597         estimate D2E/DX2                !
 ! A24   A(26,4,27)            104.2271         estimate D2E/DX2                !
 ! A25   A(4,5,6)              108.0901         estimate D2E/DX2                !
 ! A26   A(4,5,10)             111.0129         estimate D2E/DX2                !
 ! A27   A(4,5,14)             107.988          estimate D2E/DX2                !
 ! A28   A(6,5,10)             108.1145         estimate D2E/DX2                !
 ! A29   A(6,5,14)             110.4863         estimate D2E/DX2                !
 ! A30   A(10,5,14)            111.1145         estimate D2E/DX2                !
 ! A31   A(5,6,7)              115.7926         estimate D2E/DX2                !
 ! A32   A(5,6,28)             110.0401         estimate D2E/DX2                !
 ! A33   A(5,6,29)             110.4607         estimate D2E/DX2                !
 ! A34   A(7,6,28)             109.8474         estimate D2E/DX2                !
 ! A35   A(7,6,29)             105.2417         estimate D2E/DX2                !
 ! A36   A(28,6,29)            104.8095         estimate D2E/DX2                !
 ! A37   A(6,7,8)              112.1011         estimate D2E/DX2                !
 ! A38   A(6,7,30)             112.5926         estimate D2E/DX2                !
 ! A39   A(6,7,31)             109.0728         estimate D2E/DX2                !
 ! A40   A(8,7,30)             108.6002         estimate D2E/DX2                !
 ! A41   A(8,7,31)             106.9194         estimate D2E/DX2                !
 ! A42   A(30,7,31)            107.2894         estimate D2E/DX2                !
 ! A43   A(7,8,9)              112.7007         estimate D2E/DX2                !
 ! A44   A(7,8,32)             108.4547         estimate D2E/DX2                !
 ! A45   A(7,8,33)             110.3692         estimate D2E/DX2                !
 ! A46   A(9,8,32)             107.9976         estimate D2E/DX2                !
 ! A47   A(9,8,33)             109.6671         estimate D2E/DX2                !
 ! A48   A(32,8,33)            107.4792         estimate D2E/DX2                !
 ! A49   A(8,9,34)             111.0649         estimate D2E/DX2                !
 ! A50   A(8,9,35)             110.4961         estimate D2E/DX2                !
 ! A51   A(8,9,36)             109.3442         estimate D2E/DX2                !
 ! A52   A(34,9,35)            109.3652         estimate D2E/DX2                !
 ! A53   A(34,9,36)            108.0545         estimate D2E/DX2                !
 ! A54   A(35,9,36)            108.4437         estimate D2E/DX2                !
 ! A55   A(5,10,11)            116.5939         estimate D2E/DX2                !
 ! A56   A(5,10,37)            110.3096         estimate D2E/DX2                !
 ! A57   A(5,10,38)            109.6401         estimate D2E/DX2                !
 ! A58   A(11,10,37)           108.1277         estimate D2E/DX2                !
 ! A59   A(11,10,38)           105.7916         estimate D2E/DX2                !
 ! A60   A(37,10,38)           105.763          estimate D2E/DX2                !
 ! A61   A(10,11,12)           112.4268         estimate D2E/DX2                !
 ! A62   A(10,11,39)           108.2622         estimate D2E/DX2                !
 ! A63   A(10,11,40)           112.946          estimate D2E/DX2                !
 ! A64   A(12,11,39)           107.5016         estimate D2E/DX2                !
 ! A65   A(12,11,40)           109.6255         estimate D2E/DX2                !
 ! A66   A(39,11,40)           105.703          estimate D2E/DX2                !
 ! A67   A(11,12,13)           111.2466         estimate D2E/DX2                !
 ! A68   A(11,12,41)           110.5248         estimate D2E/DX2                !
 ! A69   A(11,12,42)           109.4976         estimate D2E/DX2                !
 ! A70   A(13,12,41)           108.6728         estimate D2E/DX2                !
 ! A71   A(13,12,42)           108.7131         estimate D2E/DX2                !
 ! A72   A(41,12,42)           108.1109         estimate D2E/DX2                !
 ! A73   A(12,13,43)           110.3504         estimate D2E/DX2                !
 ! A74   A(12,13,44)           109.5644         estimate D2E/DX2                !
 ! A75   A(12,13,45)           110.2895         estimate D2E/DX2                !
 ! A76   A(43,13,44)           108.6566         estimate D2E/DX2                !
 ! A77   A(43,13,45)           109.3157         estimate D2E/DX2                !
 ! A78   A(44,13,45)           108.6245         estimate D2E/DX2                !
 ! A79   A(5,14,15)            116.1256         estimate D2E/DX2                !
 ! A80   A(5,14,46)            110.7636         estimate D2E/DX2                !
 ! A81   A(5,14,47)            110.2612         estimate D2E/DX2                !
 ! A82   A(15,14,46)           106.4894         estimate D2E/DX2                !
 ! A83   A(15,14,47)           109.0772         estimate D2E/DX2                !
 ! A84   A(46,14,47)           103.2939         estimate D2E/DX2                !
 ! A85   A(14,15,16)           110.8299         estimate D2E/DX2                !
 ! A86   A(14,15,48)           110.5723         estimate D2E/DX2                !
 ! A87   A(14,15,49)           111.3401         estimate D2E/DX2                !
 ! A88   A(16,15,48)           107.2819         estimate D2E/DX2                !
 ! A89   A(16,15,49)           109.0421         estimate D2E/DX2                !
 ! A90   A(48,15,49)           107.632          estimate D2E/DX2                !
 ! A91   A(15,16,17)           111.2483         estimate D2E/DX2                !
 ! A92   A(15,16,50)           110.0968         estimate D2E/DX2                !
 ! A93   A(15,16,51)           109.598          estimate D2E/DX2                !
 ! A94   A(17,16,50)           108.7648         estimate D2E/DX2                !
 ! A95   A(17,16,51)           108.8215         estimate D2E/DX2                !
 ! A96   A(50,16,51)           108.2472         estimate D2E/DX2                !
 ! A97   A(16,17,52)           110.2993         estimate D2E/DX2                !
 ! A98   A(16,17,53)           110.3412         estimate D2E/DX2                !
 ! A99   A(16,17,54)           109.5601         estimate D2E/DX2                !
 ! A100  A(52,17,53)           109.3069         estimate D2E/DX2                !
 ! A101  A(52,17,54)           108.6428         estimate D2E/DX2                !
 ! A102  A(53,17,54)           108.6509         estimate D2E/DX2                !
 ! A103  A(26,18,29)            62.2016         estimate D2E/DX2                !
 ! A104  A(26,18,47)            50.7351         estimate D2E/DX2                !
 ! A105  A(29,18,47)            56.9746         estimate D2E/DX2                !
 ! A106  A(4,26,18)            132.4072         estimate D2E/DX2                !
 ! A107  A(6,29,18)            143.9829         estimate D2E/DX2                !
 ! A108  A(14,47,18)           147.9962         estimate D2E/DX2                !
 ! D1    D(19,1,2,3)            68.1324         estimate D2E/DX2                !
 ! D2    D(19,1,2,22)          -55.0191         estimate D2E/DX2                !
 ! D3    D(19,1,2,23)         -171.9359         estimate D2E/DX2                !
 ! D4    D(20,1,2,3)          -172.8641         estimate D2E/DX2                !
 ! D5    D(20,1,2,22)           63.9844         estimate D2E/DX2                !
 ! D6    D(20,1,2,23)          -52.9324         estimate D2E/DX2                !
 ! D7    D(21,1,2,3)           -53.3937         estimate D2E/DX2                !
 ! D8    D(21,1,2,22)         -176.5452         estimate D2E/DX2                !
 ! D9    D(21,1,2,23)           66.538          estimate D2E/DX2                !
 ! D10   D(1,2,3,4)            -67.4199         estimate D2E/DX2                !
 ! D11   D(1,2,3,24)           170.9888         estimate D2E/DX2                !
 ! D12   D(1,2,3,25)            54.7448         estimate D2E/DX2                !
 ! D13   D(22,2,3,4)            55.4001         estimate D2E/DX2                !
 ! D14   D(22,2,3,24)          -66.1912         estimate D2E/DX2                !
 ! D15   D(22,2,3,25)          177.5648         estimate D2E/DX2                !
 ! D16   D(23,2,3,4)           172.732          estimate D2E/DX2                !
 ! D17   D(23,2,3,24)           51.1407         estimate D2E/DX2                !
 ! D18   D(23,2,3,25)          -65.1033         estimate D2E/DX2                !
 ! D19   D(2,3,4,5)           -166.27           estimate D2E/DX2                !
 ! D20   D(2,3,4,26)           -42.8537         estimate D2E/DX2                !
 ! D21   D(2,3,4,27)            68.7711         estimate D2E/DX2                !
 ! D22   D(24,3,4,5)           -46.5265         estimate D2E/DX2                !
 ! D23   D(24,3,4,26)           76.8898         estimate D2E/DX2                !
 ! D24   D(24,3,4,27)         -171.4854         estimate D2E/DX2                !
 ! D25   D(25,3,4,5)            72.6519         estimate D2E/DX2                !
 ! D26   D(25,3,4,26)         -163.9318         estimate D2E/DX2                !
 ! D27   D(25,3,4,27)          -52.307          estimate D2E/DX2                !
 ! D28   D(3,4,5,6)           -150.4511         estimate D2E/DX2                !
 ! D29   D(3,4,5,10)           -32.0356         estimate D2E/DX2                !
 ! D30   D(3,4,5,14)            90.0            estimate D2E/DX2                !
 ! D31   D(26,4,5,6)            87.7691         estimate D2E/DX2                !
 ! D32   D(26,4,5,10)         -153.8154         estimate D2E/DX2                !
 ! D33   D(26,4,5,14)          -31.7798         estimate D2E/DX2                !
 ! D34   D(27,4,5,6)           -27.1492         estimate D2E/DX2                !
 ! D35   D(27,4,5,10)           91.2663         estimate D2E/DX2                !
 ! D36   D(27,4,5,14)         -146.6981         estimate D2E/DX2                !
 ! D37   D(3,4,26,18)         -178.502          estimate D2E/DX2                !
 ! D38   D(5,4,26,18)          -51.6444         estimate D2E/DX2                !
 ! D39   D(27,4,26,18)          67.4643         estimate D2E/DX2                !
 ! D40   D(4,5,6,7)            180.0            estimate D2E/DX2                !
 ! D41   D(4,5,6,28)            54.7138         estimate D2E/DX2                !
 ! D42   D(4,5,6,29)           -60.5314         estimate D2E/DX2                !
 ! D43   D(10,5,6,7)            59.7512         estimate D2E/DX2                !
 ! D44   D(10,5,6,28)          -65.535          estimate D2E/DX2                !
 ! D45   D(10,5,6,29)          179.2198         estimate D2E/DX2                !
 ! D46   D(14,5,6,7)           -62.0401         estimate D2E/DX2                !
 ! D47   D(14,5,6,28)          172.6737         estimate D2E/DX2                !
 ! D48   D(14,5,6,29)           57.4284         estimate D2E/DX2                !
 ! D49   D(4,5,10,11)          -59.7703         estimate D2E/DX2                !
 ! D50   D(4,5,10,37)          176.4295         estimate D2E/DX2                !
 ! D51   D(4,5,10,38)           60.3487         estimate D2E/DX2                !
 ! D52   D(6,5,10,11)           58.6304         estimate D2E/DX2                !
 ! D53   D(6,5,10,37)          -65.1697         estimate D2E/DX2                !
 ! D54   D(6,5,10,38)          178.7495         estimate D2E/DX2                !
 ! D55   D(14,5,10,11)        -179.9662         estimate D2E/DX2                !
 ! D56   D(14,5,10,37)          56.2337         estimate D2E/DX2                !
 ! D57   D(14,5,10,38)         -59.8472         estimate D2E/DX2                !
 ! D58   D(4,5,14,15)          -66.6599         estimate D2E/DX2                !
 ! D59   D(4,5,14,46)          171.7362         estimate D2E/DX2                !
 ! D60   D(4,5,14,47)           58.027          estimate D2E/DX2                !
 ! D61   D(6,5,14,15)          175.3177         estimate D2E/DX2                !
 ! D62   D(6,5,14,46)           53.7138         estimate D2E/DX2                !
 ! D63   D(6,5,14,47)          -59.9954         estimate D2E/DX2                !
 ! D64   D(10,5,14,15)          55.3131         estimate D2E/DX2                !
 ! D65   D(10,5,14,46)         -66.2908         estimate D2E/DX2                !
 ! D66   D(10,5,14,47)         180.0            estimate D2E/DX2                !
 ! D67   D(5,6,7,8)           -174.9867         estimate D2E/DX2                !
 ! D68   D(5,6,7,30)           -52.1774         estimate D2E/DX2                !
 ! D69   D(5,6,7,31)            66.8001         estimate D2E/DX2                !
 ! D70   D(28,6,7,8)           -49.6019         estimate D2E/DX2                !
 ! D71   D(28,6,7,30)           73.2074         estimate D2E/DX2                !
 ! D72   D(28,6,7,31)         -167.815          estimate D2E/DX2                !
 ! D73   D(29,6,7,8)            62.7322         estimate D2E/DX2                !
 ! D74   D(29,6,7,30)         -174.4585         estimate D2E/DX2                !
 ! D75   D(29,6,7,31)          -55.481          estimate D2E/DX2                !
 ! D76   D(5,6,29,18)            1.7961         estimate D2E/DX2                !
 ! D77   D(7,6,29,18)          127.4584         estimate D2E/DX2                !
 ! D78   D(28,6,29,18)        -116.6912         estimate D2E/DX2                !
 ! D79   D(6,7,8,9)             76.5438         estimate D2E/DX2                !
 ! D80   D(6,7,8,32)          -163.9392         estimate D2E/DX2                !
 ! D81   D(6,7,8,33)           -46.4444         estimate D2E/DX2                !
 ! D82   D(30,7,8,9)           -48.4968         estimate D2E/DX2                !
 ! D83   D(30,7,8,32)           71.0202         estimate D2E/DX2                !
 ! D84   D(30,7,8,33)         -171.485          estimate D2E/DX2                !
 ! D85   D(31,7,8,9)          -163.9731         estimate D2E/DX2                !
 ! D86   D(31,7,8,32)          -44.4561         estimate D2E/DX2                !
 ! D87   D(31,7,8,33)           73.0387         estimate D2E/DX2                !
 ! D88   D(7,8,9,34)           -66.5876         estimate D2E/DX2                !
 ! D89   D(7,8,9,35)            54.968          estimate D2E/DX2                !
 ! D90   D(7,8,9,36)           174.2555         estimate D2E/DX2                !
 ! D91   D(32,8,9,34)          173.631          estimate D2E/DX2                !
 ! D92   D(32,8,9,35)          -64.8134         estimate D2E/DX2                !
 ! D93   D(32,8,9,36)           54.474          estimate D2E/DX2                !
 ! D94   D(33,8,9,34)           56.7918         estimate D2E/DX2                !
 ! D95   D(33,8,9,35)          178.3474         estimate D2E/DX2                !
 ! D96   D(33,8,9,36)          -62.3651         estimate D2E/DX2                !
 ! D97   D(5,10,11,12)         180.0            estimate D2E/DX2                !
 ! D98   D(5,10,11,39)          61.394          estimate D2E/DX2                !
 ! D99   D(5,10,11,40)         -55.2983         estimate D2E/DX2                !
 ! D100  D(37,10,11,12)        -55.0871         estimate D2E/DX2                !
 ! D101  D(37,10,11,39)       -173.6932         estimate D2E/DX2                !
 ! D102  D(37,10,11,40)         69.6145         estimate D2E/DX2                !
 ! D103  D(38,10,11,12)         57.8454         estimate D2E/DX2                !
 ! D104  D(38,10,11,39)        -60.7607         estimate D2E/DX2                !
 ! D105  D(38,10,11,40)       -177.453          estimate D2E/DX2                !
 ! D106  D(10,11,12,13)        178.8472         estimate D2E/DX2                !
 ! D107  D(10,11,12,41)         58.0262         estimate D2E/DX2                !
 ! D108  D(10,11,12,42)        -60.9651         estimate D2E/DX2                !
 ! D109  D(39,11,12,13)        -62.1009         estimate D2E/DX2                !
 ! D110  D(39,11,12,41)        177.0781         estimate D2E/DX2                !
 ! D111  D(39,11,12,42)         58.0868         estimate D2E/DX2                !
 ! D112  D(40,11,12,13)         52.3386         estimate D2E/DX2                !
 ! D113  D(40,11,12,41)        -68.4825         estimate D2E/DX2                !
 ! D114  D(40,11,12,42)        172.5263         estimate D2E/DX2                !
 ! D115  D(11,12,13,43)         59.6645         estimate D2E/DX2                !
 ! D116  D(11,12,13,44)        179.2626         estimate D2E/DX2                !
 ! D117  D(11,12,13,45)        -61.2166         estimate D2E/DX2                !
 ! D118  D(41,12,13,43)       -178.4325         estimate D2E/DX2                !
 ! D119  D(41,12,13,44)        -58.8344         estimate D2E/DX2                !
 ! D120  D(41,12,13,45)         60.6864         estimate D2E/DX2                !
 ! D121  D(42,12,13,43)        -60.986          estimate D2E/DX2                !
 ! D122  D(42,12,13,44)         58.6121         estimate D2E/DX2                !
 ! D123  D(42,12,13,45)        178.1329         estimate D2E/DX2                !
 ! D124  D(5,14,15,16)         175.6814         estimate D2E/DX2                !
 ! D125  D(5,14,15,48)         -65.4832         estimate D2E/DX2                !
 ! D126  D(5,14,15,49)          54.1197         estimate D2E/DX2                !
 ! D127  D(46,14,15,16)        -60.4721         estimate D2E/DX2                !
 ! D128  D(46,14,15,48)         58.3633         estimate D2E/DX2                !
 ! D129  D(46,14,15,49)        177.9662         estimate D2E/DX2                !
 ! D130  D(47,14,15,16)         50.3899         estimate D2E/DX2                !
 ! D131  D(47,14,15,48)        169.2252         estimate D2E/DX2                !
 ! D132  D(47,14,15,49)        -71.1719         estimate D2E/DX2                !
 ! D133  D(5,14,47,18)           0.0            estimate D2E/DX2                !
 ! D134  D(15,14,47,18)        128.6326         estimate D2E/DX2                !
 ! D135  D(46,14,47,18)       -118.3933         estimate D2E/DX2                !
 ! D136  D(14,15,16,17)       -179.3243         estimate D2E/DX2                !
 ! D137  D(14,15,16,50)        -58.674          estimate D2E/DX2                !
 ! D138  D(14,15,16,51)         60.2856         estimate D2E/DX2                !
 ! D139  D(48,15,16,17)         59.8715         estimate D2E/DX2                !
 ! D140  D(48,15,16,50)       -179.4782         estimate D2E/DX2                !
 ! D141  D(48,15,16,51)        -60.5187         estimate D2E/DX2                !
 ! D142  D(49,15,16,17)        -56.4221         estimate D2E/DX2                !
 ! D143  D(49,15,16,50)         64.2282         estimate D2E/DX2                !
 ! D144  D(49,15,16,51)       -176.8122         estimate D2E/DX2                !
 ! D145  D(15,16,17,52)         60.7272         estimate D2E/DX2                !
 ! D146  D(15,16,17,53)        -60.1433         estimate D2E/DX2                !
 ! D147  D(15,16,17,54)       -179.7259         estimate D2E/DX2                !
 ! D148  D(50,16,17,52)        -60.7038         estimate D2E/DX2                !
 ! D149  D(50,16,17,53)        178.4256         estimate D2E/DX2                !
 ! D150  D(50,16,17,54)         58.843          estimate D2E/DX2                !
 ! D151  D(51,16,17,52)       -178.4255         estimate D2E/DX2                !
 ! D152  D(51,16,17,53)         60.704          estimate D2E/DX2                !
 ! D153  D(51,16,17,54)        -58.8787         estimate D2E/DX2                !
 ! D154  D(29,18,26,4)           6.296          estimate D2E/DX2                !
 ! D155  D(47,18,26,4)          74.9004         estimate D2E/DX2                !
 ! D156  D(26,18,29,6)          24.3415         estimate D2E/DX2                !
 ! D157  D(47,18,29,6)         -34.9513         estimate D2E/DX2                !
 ! D158  D(26,18,47,14)        -44.646          estimate D2E/DX2                !
 ! D159  D(29,18,47,14)         34.5733         estimate D2E/DX2                !
 --------------------------------------------------------------------------------
 Trust Radius=3.00D-01 FncErr=1.00D-07 GrdErr=1.00D-06 EigMax=2.50D+02 EigMin=1.00D-04
 Number of steps in this run=    324 maximum allowed number of steps=    324.
 GradGradGradGradGradGradGradGradGradGradGradGradGradGradGradGradGradGrad

 Leave Link  103 at Sat Aug 21 09:32:13 2021, MaxMem=   104857600 cpu:               0.4 elap:               0.0
 (Enter /sw/arch/RedHatEnterpriseServer7/EB_production/2020/software/Gaussian/g16.c01/l202.exe)
 Stoichiometry    C16H36ClN
 Framework group  C1[X(C16H36ClN)]
 Deg. of freedom   156
 Full point group                 C1      NOp   1
 Largest Abelian subgroup         C1      NOp   1
 Largest concise Abelian subgroup C1      NOp   1
                         Standard orientation:                         
 ---------------------------------------------------------------------
 Center     Atomic      Atomic             Coordinates (Angstroms)
 Number     Number       Type             X           Y           Z
 ---------------------------------------------------------------------
      1          6           0       -0.946948   -2.765735    3.219602
      2          6           0       -1.703892   -2.652845    1.896388
      3          6           0       -0.854100   -2.034100    0.774330
      4          6           0       -0.524280   -0.540208    1.032287
      5          7           0        0.020782    0.228517   -0.148831
      6          6           0        0.923690    1.315483    0.376449
      7          6           0        1.586033    2.222510   -0.698016
      8          6           0        2.581434    3.218649   -0.080425
      9          6           0        3.908997    2.564441    0.304480
     10          6           0        0.834917   -0.663625   -1.043163
     11          6           0        2.077214   -1.351087   -0.399271
     12          6           0        2.838683   -2.239524   -1.396725
     13          6           0        4.063986   -2.875966   -0.746874
     14          6           0       -1.145094    0.825500   -0.893579
     15          6           0       -2.101461   -0.182672   -1.588873
     16          6           0       -3.298237    0.544564   -2.216892
     17          6           0       -4.252734   -0.438845   -2.888393
     18         17           0       -2.037125    2.483606    2.111793
     19          1           0       -0.747986   -1.760245    3.644942
     20          1           0       -1.562447   -3.332936    3.949213
     21          1           0        0.013833   -3.303776    3.073968
     22          1           0       -2.631238   -2.058683    2.047140
     23          1           0       -2.009547   -3.674442    1.582069
     24          1           0       -1.424882   -2.146580   -0.168823
     25          1           0        0.082734   -2.623852    0.679808
     26          1           0       -1.455301   -0.059654    1.406801
     27          1           0        0.173734   -0.491377    1.894232
     28          1           0        1.704257    0.877392    1.033000
     29          1           0        0.355975    2.008027    1.033500
     30          1           0        2.108838    1.640962   -1.482078
     31          1           0        0.799141    2.822272   -1.201566
     32          1           0        2.794147    4.013176   -0.828491
     33          1           0        2.134278    3.710241    0.810840
     34          1           0        3.771099    1.840369    1.133092
     35          1           0        4.353707    2.043289   -0.569877
     36          1           0        4.619227    3.346728    0.645707
     37          1           0        1.175522   -0.103926   -1.938567
     38          1           0        0.201350   -1.484431   -1.425258
     39          1           0        1.723734   -2.004858    0.429109
     40          1           0        2.776085   -0.630819    0.065274
     41          1           0        3.169892   -1.644944   -2.273235
     42          1           0        2.167741   -3.047863   -1.760992
     43          1           0        3.760609   -3.502055    0.119141
     44          1           0        4.584376   -3.520570   -1.486227
     45          1           0        4.769533   -2.089916   -0.402773
     46          1           0       -0.792126    1.522924   -1.684824
     47          1           0       -1.733606    1.478372   -0.223375
     48          1           0       -1.576210   -0.718413   -2.405229
     49          1           0       -2.474387   -0.942134   -0.874992
     50          1           0       -3.854968    1.107228   -1.437321
     51          1           0       -2.936381    1.269799   -2.978078
     52          1           0       -4.651866   -1.158854   -2.142497
     53          1           0       -3.728852   -0.996757   -3.693651
     54          1           0       -5.103609    0.116159   -3.336595
 ---------------------------------------------------------------------
 Rotational constants (GHZ):           0.2763168           0.2218470           0.1895660
 Leave Link  202 at Sat Aug 21 09:32:14 2021, MaxMem=   104857600 cpu:               0.4 elap:               0.1
 (Enter /sw/arch/RedHatEnterpriseServer7/EB_production/2020/software/Gaussian/g16.c01/l301.exe)
 Standard basis: TZVP (5D, 7F)
 Ernie: Thresh=  0.10000D-02 Tol=  0.10000D-05 Strict=F.
 There are   579 symmetry adapted cartesian basis functions of A   symmetry.
 There are   561 symmetry adapted basis functions of A   symmetry.
   561 basis functions,   930 primitive gaussians,   579 cartesian basis functions
    78 alpha electrons       78 beta electrons
       nuclear repulsion energy      1623.2197520256 Hartrees.
 IExCor=  404 DFT=T Ex=B Corr=P86 ExCW=0 ScaHFX=  0.000000
 ScaDFX=  1.000000  1.000000  1.000000  1.000000 ScalE2=  1.000000  1.000000
 IRadAn=      5 IRanWt=     -1 IRanGd=            0 ICorTp=0 IEmpDi=131
 NAtoms=   54 NActive=   54 NUniq=   54 SFac= 1.00D+00 NAtFMM=   60 NAOKFM=F Big=F
 Integral buffers will be    131072 words long.
 Raffenetti 2 integral format.
 Two-electron integral symmetry is turned on.
 R6Disp:  Grimme-D3 Dispersion energy=       -0.0715178988 Hartrees.
 Nuclear repulsion after empirical dispersion term =     1623.1482341268 Hartrees.
 ------------------------------------------------------------------------------
 Polarizable Continuum Model (PCM)
 =================================
 Model                : PCM.
 Atomic radii         : UFF (Universal Force Field).
 Polarization charges : Total charges.
 Charge compensation  : None.
 Solution method      : On-the-fly selection.
 Cavity type          : Scaled VdW (van der Waals Surface) (Alpha=1.100).
 Cavity algorithm     : GePol (No added spheres)
                        Default sphere list used, NSphG=   54.
                        Lebedev-Laikov grids with approx.  5.0 points / Ang**2.
                        Smoothing algorithm: York/Karplus (Gamma=1.0000).
                        Polarization charges: spherical gaussians, with
                                              point-specific exponents (IZeta= 3).
                        Self-potential: point-specific (ISelfS= 7).
                        Self-field    : sphere-specific E.n sum rule (ISelfD= 2).
 1st derivatives      : Analytical E(r).r(x)/FMM algorithm (CHGder, D1EAlg=3).
                        Cavity 1st derivative terms included.
 Solvent              : Water, Eps=  78.355300 Eps(inf)=   1.777849
 ------------------------------------------------------------------------------
 GePol: Number of generator spheres                  =      54
 GePol: Total number of spheres                      =      54
 GePol: Number of exposed spheres                    =      53 ( 98.15%)
 GePol: Number of points                             =    3303
 GePol: Average weight of points                     =       0.13
 GePol: Minimum weight of points                     =   0.19D-09
 GePol: Maximum weight of points                     =    0.21616
 GePol: Number of points with low weight             =     264
 GePol: Fraction of low-weight points (<1% of avg)   =       7.99%
 GePol: Cavity surface area                          =    439.038 Ang**2
 GePol: Cavity volume                                =    481.922 Ang**3
 Leave Link  301 at Sat Aug 21 09:32:14 2021, MaxMem=   104857600 cpu:               3.5 elap:               0.2
 (Enter /sw/arch/RedHatEnterpriseServer7/EB_production/2020/software/Gaussian/g16.c01/l302.exe)
 NPDir=0 NMtPBC=     1 NCelOv=     1 NCel=       1 NClECP=     1 NCelD=      1
         NCelK=      1 NCelE2=     1 NClLst=     1 CellRange=     0.0.
 One-electron integrals computed using PRISM.
 One-electron integral symmetry used in STVInt
 PrsmSu:  requested number of processors reduced to:  23 ShMem   1 Linda.
 NBasis=   561 RedAO= T EigKep=  8.51D-05  NBF=   561
 NBsUse=   561 1.00D-06 EigRej= -1.00D+00 NBFU=   561
 Precomputing XC quadrature grid using
 IXCGrd= 4 IRadAn=           5 IRanWt=          -1 IRanGd=           0 AccXCQ= 0.00D+00.
 Generated NRdTot=       0 NPtTot=           0 NUsed=           0 NTot=          32
 NSgBfM=   562   562   562   562   562 MxSgAt=    54 MxSgA2=    54.
 Leave Link  302 at Sat Aug 21 09:32:15 2021, MaxMem=   104857600 cpu:              17.5 elap:               0.8
 (Enter /sw/arch/RedHatEnterpriseServer7/EB_production/2020/software/Gaussian/g16.c01/l303.exe)
 DipDrv:  MaxL=1.
 Leave Link  303 at Sat Aug 21 09:32:16 2021, MaxMem=   104857600 cpu:               2.7 elap:               0.2
 (Enter /sw/arch/RedHatEnterpriseServer7/EB_production/2020/software/Gaussian/g16.c01/l401.exe)
 ExpMin= 9.52D-02 ExpMax= 6.95D+04 ExpMxC= 2.37D+03 IAcc=3 IRadAn=         5 AccDes= 0.00D+00
 Harris functional with IExCor=  404 and IRadAn=       5 diagonalized for initial guess.
 HarFok:  IExCor=  404 AccDes= 0.00D+00 IRadAn=         5 IDoV= 1 UseB2=F ITyADJ=14
 ICtDFT=  3500011 ScaDFX=  1.000000  1.000000  1.000000  1.000000
 FoFCou: FMM=F IPFlag=           0 FMFlag=      100000 FMFlg1=           0
         NFxFlg=           0 DoJE=T BraDBF=F KetDBF=T FulRan=T
         wScrn=  0.000000 ICntrl=       500 IOpCl=  0 I1Cent=   200000004 NGrid=           0
         NMat0=    1 NMatS0=      1 NMatT0=    0 NMatD0=    1 NMtDS0=    0 NMtDT0=    0
 Petite list used in FoFCou.
 Harris En= -1147.05612820433    
 JPrj=0 DoOrth=F DoCkMO=F.
 Leave Link  401 at Sat Aug 21 09:32:18 2021, MaxMem=   104857600 cpu:              47.4 elap:               2.0
 (Enter /sw/arch/RedHatEnterpriseServer7/EB_production/2020/software/Gaussian/g16.c01/l502.exe)
 Integral symmetry usage will be decided dynamically.
 Closed shell SCF:
 Using DIIS extrapolation, IDIIS=  1040.
 NGot=   104857600 LenX=   104165798 LenY=   103829978
 Requested convergence on RMS density matrix=1.00D-08 within 128 cycles.
 Requested convergence on MAX density matrix=1.00D-06.
 Requested convergence on             energy=1.00D-06.
 No special actions if energy rises.
 Fock matrices will be formed incrementally for  20 cycles.

 Cycle   1  Pass 1  IDiag  1:
 FoFJK:  IHMeth= 1 ICntrl=     500 DoSepK=F KAlg= 0 I1Cent=           0 FoldK=F
 IRaf= 810000000 NMat=       1 IRICut=       1 DoRegI=T DoRafI=F ISym2E= 0 IDoP0=0 IntGTp=1.
 FoFCou: FMM=F IPFlag=           0 FMFlag=      100000 FMFlg1=           0
         NFxFlg=           0 DoJE=T BraDBF=F KetDBF=F FulRan=T
         wScrn=  0.000000 ICntrl=       500 IOpCl=  0 I1Cent=           0 NGrid=           0
         NMat0=    1 NMatS0=      1 NMatT0=    0 NMatD0=    1 NMtDS0=    0 NMtDT0=    0
 Symmetry not used in FoFCou.
 Inv3:  Mode=1 IEnd=    32729427.
 Iteration    1 A*A^-1 deviation from unit magnitude is 3.77D-15 for   1866.
 Iteration    1 A*A^-1 deviation from orthogonality  is 1.69D-15 for   1323   1280.
 Iteration    1 A^-1*A deviation from unit magnitude is 3.55D-15 for   1866.
 Iteration    1 A^-1*A deviation from orthogonality  is 1.85D-14 for   2851   2792.
 E= -1146.06314262228    
 DIIS: error= 2.64D-02 at cycle   1 NSaved=   1.
 NSaved= 1 IEnMin= 1 EnMin= -1146.06314262228     IErMin= 1 ErrMin= 2.64D-02
 ErrMax= 2.64D-02  0.00D+00 EMaxC= 1.00D-01 BMatC= 5.85D-01 BMatP= 5.85D-01
 IDIUse=3 WtCom= 7.36D-01 WtEn= 2.64D-01
 Coeff-Com:  0.100D+01
 Coeff-En:   0.100D+01
 Coeff:      0.100D+01
 Gap=     0.189 Goal=   None    Shift=    0.000
 GapD=    0.189 DampG=1.000 DampE=0.500 DampFc=0.5000 IDamp=-1.
 Damping current iteration by 5.00D-01
 RMSDP=3.53D-03 MaxDP=2.63D-01              OVMax= 2.08D-01

 Cycle   2  Pass 1  IDiag  1:
 RMSU=  1.76D-03    CP:  9.86D-01
 E= -1146.21337290438     Delta-E=       -0.150230282100 Rises=F Damp=T
 DIIS: error= 9.69D-03 at cycle   2 NSaved=   2.
 NSaved= 2 IEnMin= 2 EnMin= -1146.21337290438     IErMin= 2 ErrMin= 9.69D-03
 ErrMax= 9.69D-03  0.00D+00 EMaxC= 1.00D-01 BMatC= 8.62D-02 BMatP= 5.85D-01
 IDIUse=3 WtCom= 9.03D-01 WtEn= 9.69D-02
 Coeff-Com:  0.235D+00 0.765D+00
 Coeff-En:   0.374D+00 0.626D+00
 Coeff:      0.249D+00 0.751D+00
 Gap=     0.202 Goal=   None    Shift=    0.000
 RMSDP=9.23D-04 MaxDP=6.45D-02 DE=-1.50D-01 OVMax= 1.32D-01

 Cycle   3  Pass 1  IDiag  1:
 RMSU=  7.31D-04    CP:  9.88D-01  6.80D-01
 E= -1146.63890378192     Delta-E=       -0.425530877545 Rises=F Damp=F
 DIIS: error= 6.86D-03 at cycle   3 NSaved=   3.
 NSaved= 3 IEnMin= 3 EnMin= -1146.63890378192     IErMin= 3 ErrMin= 6.86D-03
 ErrMax= 6.86D-03  0.00D+00 EMaxC= 1.00D-01 BMatC= 2.83D-02 BMatP= 8.62D-02
 IDIUse=3 WtCom= 9.31D-01 WtEn= 6.86D-02
 Coeff-Com:  0.890D-01 0.375D+00 0.536D+00
 Coeff-En:   0.000D+00 0.000D+00 0.100D+01
 Coeff:      0.829D-01 0.349D+00 0.568D+00
 Gap=     0.202 Goal=   None    Shift=    0.000
 RMSDP=5.32D-04 MaxDP=5.44D-02 DE=-4.26D-01 OVMax= 3.54D-02

 Cycle   4  Pass 1  IDiag  1:
 RMSU=  4.03D-04    CP:  9.96D-01  7.48D-01  5.63D-01
 E= -1146.65312066106     Delta-E=       -0.014216879140 Rises=F Damp=F
 DIIS: error= 4.46D-03 at cycle   4 NSaved=   4.
 NSaved= 4 IEnMin= 4 EnMin= -1146.65312066106     IErMin= 4 ErrMin= 4.46D-03
 ErrMax= 4.46D-03  0.00D+00 EMaxC= 1.00D-01 BMatC= 1.19D-02 BMatP= 2.83D-02
 IDIUse=3 WtCom= 9.55D-01 WtEn= 4.46D-02
 Coeff-Com:  0.158D-01 0.892D-01 0.390D+00 0.505D+00
 Coeff-En:   0.000D+00 0.000D+00 0.336D+00 0.664D+00
 Coeff:      0.151D-01 0.852D-01 0.387D+00 0.512D+00
 Gap=     0.203 Goal=   None    Shift=    0.000
 RMSDP=2.84D-04 MaxDP=3.95D-02 DE=-1.42D-02 OVMax= 1.52D-02

 Cycle   5  Pass 1  IDiag  1:
 RMSU=  1.24D-04    CP:  9.91D-01  7.00D-01  6.70D-01  4.45D-01
 E= -1146.66364623934     Delta-E=       -0.010525578271 Rises=F Damp=F
 DIIS: error= 6.17D-04 at cycle   5 NSaved=   5.
 NSaved= 5 IEnMin= 5 EnMin= -1146.66364623934     IErMin= 5 ErrMin= 6.17D-04
 ErrMax= 6.17D-04  0.00D+00 EMaxC= 1.00D-01 BMatC= 2.06D-04 BMatP= 1.19D-02
 IDIUse=3 WtCom= 9.94D-01 WtEn= 6.17D-03
 Coeff-Com:  0.399D-02 0.227D-01 0.139D+00 0.226D+00 0.608D+00
 Coeff-En:   0.000D+00 0.000D+00 0.000D+00 0.000D+00 0.100D+01
 Coeff:      0.397D-02 0.225D-01 0.138D+00 0.225D+00 0.611D+00
 Gap=     0.199 Goal=   None    Shift=    0.000
 RMSDP=5.67D-05 MaxDP=4.98D-03 DE=-1.05D-02 OVMax= 2.85D-03

 Cycle   6  Pass 1  IDiag  1:
 RMSU=  2.59D-05    CP:  9.92D-01  7.10D-01  6.98D-01  4.93D-01  6.97D-01
 E= -1146.66382279671     Delta-E=       -0.000176557375 Rises=F Damp=F
 DIIS: error= 3.49D-04 at cycle   6 NSaved=   6.
 NSaved= 6 IEnMin= 6 EnMin= -1146.66382279671     IErMin= 6 ErrMin= 3.49D-04
 ErrMax= 3.49D-04  0.00D+00 EMaxC= 1.00D-01 BMatC= 2.31D-05 BMatP= 2.06D-04
 IDIUse=3 WtCom= 9.97D-01 WtEn= 3.49D-03
 Coeff-Com:  0.757D-03 0.493D-02 0.477D-01 0.886D-01 0.327D+00 0.531D+00
 Coeff-En:   0.000D+00 0.000D+00 0.000D+00 0.000D+00 0.000D+00 0.100D+01
 Coeff:      0.754D-03 0.491D-02 0.475D-01 0.883D-01 0.326D+00 0.533D+00
 Gap=     0.200 Goal=   None    Shift=    0.000
 RMSDP=1.40D-05 MaxDP=1.19D-03 DE=-1.77D-04 OVMax= 1.02D-03

 Cycle   7  Pass 1  IDiag  1:
 RMSU=  8.72D-06    CP:  9.92D-01  7.09D-01  6.90D-01  5.04D-01  7.21D-01
                    CP:  7.25D-01
 E= -1146.66384283233     Delta-E=       -0.000020035624 Rises=F Damp=F
 DIIS: error= 2.70D-05 at cycle   7 NSaved=   7.
 NSaved= 7 IEnMin= 7 EnMin= -1146.66384283233     IErMin= 7 ErrMin= 2.70D-05
 ErrMax= 2.70D-05  0.00D+00 EMaxC= 1.00D-01 BMatC= 1.04D-06 BMatP= 2.31D-05
 IDIUse=1 WtCom= 1.00D+00 WtEn= 0.00D+00
 Coeff-Com:  0.169D-03 0.917D-03 0.128D-01 0.254D-01 0.106D+00 0.251D+00
 Coeff-Com:  0.604D+00
 Coeff:      0.169D-03 0.917D-03 0.128D-01 0.254D-01 0.106D+00 0.251D+00
 Coeff:      0.604D+00
 Gap=     0.200 Goal=   None    Shift=    0.000
 RMSDP=3.30D-06 MaxDP=3.07D-04 DE=-2.00D-05 OVMax= 1.25D-04

 Cycle   8  Pass 1  IDiag  1:
 RMSU=  1.92D-06    CP:  9.92D-01  7.08D-01  6.90D-01  5.02D-01  7.33D-01
                    CP:  7.16D-01  8.30D-01
 E= -1146.66384377518     Delta-E=       -0.000000942843 Rises=F Damp=F
 DIIS: error= 2.26D-05 at cycle   8 NSaved=   8.
 NSaved= 8 IEnMin= 8 EnMin= -1146.66384377518     IErMin= 8 ErrMin= 2.26D-05
 ErrMax= 2.26D-05  0.00D+00 EMaxC= 1.00D-01 BMatC= 9.30D-08 BMatP= 1.04D-06
 IDIUse=1 WtCom= 1.00D+00 WtEn= 0.00D+00
 Coeff-Com:  0.469D-04 0.440D-04 0.207D-02 0.462D-02 0.234D-01 0.795D-01
 Coeff-Com:  0.305D+00 0.586D+00
 Coeff:      0.469D-04 0.440D-04 0.207D-02 0.462D-02 0.234D-01 0.795D-01
 Coeff:      0.305D+00 0.586D+00
 Gap=     0.200 Goal=   None    Shift=    0.000
 RMSDP=1.20D-06 MaxDP=1.01D-04 DE=-9.43D-07 OVMax= 1.03D-04

 Cycle   9  Pass 1  IDiag  1:
 RMSU=  5.89D-07    CP:  9.92D-01  7.09D-01  6.90D-01  5.02D-01  7.31D-01
                    CP:  7.38D-01  7.94D-01  7.60D-01
 E= -1146.66384385171     Delta-E=       -0.000000076534 Rises=F Damp=F
 DIIS: error= 8.26D-06 at cycle   9 NSaved=   9.
 NSaved= 9 IEnMin= 9 EnMin= -1146.66384385171     IErMin= 9 ErrMin= 8.26D-06
 ErrMax= 8.26D-06  0.00D+00 EMaxC= 1.00D-01 BMatC= 9.24D-09 BMatP= 9.30D-08
 IDIUse=1 WtCom= 1.00D+00 WtEn= 0.00D+00
 Coeff-Com:  0.123D-04-0.451D-04 0.198D-03 0.584D-03 0.411D-02 0.193D-01
 Coeff-Com:  0.103D+00 0.308D+00 0.564D+00
 Coeff:      0.123D-04-0.451D-04 0.198D-03 0.584D-03 0.411D-02 0.193D-01
 Coeff:      0.103D+00 0.308D+00 0.564D+00
 Gap=     0.200 Goal=   None    Shift=    0.000
 RMSDP=3.43D-07 MaxDP=2.56D-05 DE=-7.65D-08 OVMax= 2.45D-05

 Cycle  10  Pass 1  IDiag  1:
 RMSU=  1.43D-07    CP:  9.92D-01  7.08D-01  6.90D-01  5.02D-01  7.31D-01
                    CP:  7.36D-01  8.16D-01  7.49D-01  6.50D-01
 E= -1146.66384386268     Delta-E=       -0.000000010968 Rises=F Damp=F
 DIIS: error= 5.70D-07 at cycle  10 NSaved=  10.
 NSaved=10 IEnMin=10 EnMin= -1146.66384386268     IErMin=10 ErrMin= 5.70D-07
 ErrMax= 5.70D-07  0.00D+00 EMaxC= 1.00D-01 BMatC= 2.18D-10 BMatP= 9.24D-09
 IDIUse=1 WtCom= 1.00D+00 WtEn= 0.00D+00
 Coeff-Com:  0.326D-05-0.197D-04-0.485D-06 0.534D-04 0.746D-03 0.394D-02
 Coeff-Com:  0.285D-01 0.103D+00 0.213D+00 0.650D+00
 Coeff:      0.326D-05-0.197D-04-0.485D-06 0.534D-04 0.746D-03 0.394D-02
 Coeff:      0.285D-01 0.103D+00 0.213D+00 0.650D+00
 Gap=     0.200 Goal=   None    Shift=    0.000
 RMSDP=6.30D-08 MaxDP=3.37D-06 DE=-1.10D-08 OVMax= 2.40D-06

 Cycle  11  Pass 1  IDiag  1:
 RMSU=  3.45D-08    CP:  9.92D-01  7.08D-01  6.90D-01  5.02D-01  7.31D-01
                    CP:  7.35D-01  8.18D-01  7.62D-01  6.56D-01  7.98D-01
 E= -1146.66384386288     Delta-E=       -0.000000000206 Rises=F Damp=F
 DIIS: error= 1.70D-07 at cycle  11 NSaved=  11.
 NSaved=11 IEnMin=11 EnMin= -1146.66384386288     IErMin=11 ErrMin= 1.70D-07
 ErrMax= 1.70D-07  0.00D+00 EMaxC= 1.00D-01 BMatC= 5.47D-11 BMatP= 2.18D-10
 IDIUse=1 WtCom= 1.00D+00 WtEn= 0.00D+00
 Coeff-Com:  0.106D-05-0.647D-05-0.176D-04-0.227D-04 0.693D-04 0.503D-03
 Coeff-Com:  0.738D-02 0.330D-01 0.698D-01 0.372D+00 0.517D+00
 Coeff:      0.106D-05-0.647D-05-0.176D-04-0.227D-04 0.693D-04 0.503D-03
 Coeff:      0.738D-02 0.330D-01 0.698D-01 0.372D+00 0.517D+00
 Gap=     0.200 Goal=   None    Shift=    0.000
 RMSDP=1.67D-08 MaxDP=1.30D-06 DE=-2.06D-10 OVMax= 8.38D-07

 Cycle  12  Pass 1  IDiag  1:
 RMSU=  9.27D-09    CP:  9.92D-01  7.08D-01  6.90D-01  5.02D-01  7.31D-01
                    CP:  7.35D-01  8.18D-01  7.63D-01  6.63D-01  8.06D-01
                    CP:  7.26D-01
 E= -1146.66384386291     Delta-E=       -0.000000000029 Rises=F Damp=F
 DIIS: error= 4.48D-08 at cycle  12 NSaved=  12.
 NSaved=12 IEnMin=12 EnMin= -1146.66384386291     IErMin=12 ErrMin= 4.48D-08
 ErrMax= 4.48D-08  0.00D+00 EMaxC= 1.00D-01 BMatC= 1.29D-12 BMatP= 5.47D-11
 IDIUse=1 WtCom= 1.00D+00 WtEn= 0.00D+00
 Coeff-Com:  0.176D-06-0.180D-05-0.684D-05-0.114D-04-0.183D-05 0.128D-04
 Coeff-Com:  0.169D-02 0.885D-02 0.189D-01 0.128D+00 0.225D+00 0.617D+00
 Coeff:      0.176D-06-0.180D-05-0.684D-05-0.114D-04-0.183D-05 0.128D-04
 Coeff:      0.169D-02 0.885D-02 0.189D-01 0.128D+00 0.225D+00 0.617D+00
 Gap=     0.200 Goal=   None    Shift=    0.000
 RMSDP=5.19D-09 MaxDP=2.41D-07 DE=-2.89D-11 OVMax= 1.88D-07

 Error on total polarization charges =  0.02303
 SCF Done:  E(RB-P86) =  -1146.66384386     A.U. after   12 cycles
            NFock= 12  Conv=0.52D-08     -V/T= 2.0049
 KE= 1.141030394271D+03 PE=-5.926597538332D+03 EE= 2.015755066071D+03
 Leave Link  502 at Sat Aug 21 09:34:09 2021, MaxMem=   104857600 cpu:            2644.8 elap:             111.5
 (Enter /sw/arch/RedHatEnterpriseServer7/EB_production/2020/software/Gaussian/g16.c01/l601.exe)
 Copying SCF densities to generalized density rwf, IOpCl= 0 IROHF=0.

 **********************************************************************

            Population analysis using the SCF Density.

 **********************************************************************

 Orbital symmetries:
       Occupied  (A) (A) (A) (A) (A) (A) (A) (A) (A) (A) (A) (A)
                 (A) (A) (A) (A) (A) (A) (A) (A) (A) (A) (A) (A)
                 (A) (A) (A) (A) (A) (A) (A) (A) (A) (A) (A) (A)
                 (A) (A) (A) (A) (A) (A) (A) (A) (A) (A) (A) (A)
                 (A) (A) (A) (A) (A) (A) (A) (A) (A) (A) (A) (A)
                 (A) (A) (A) (A) (A) (A) (A) (A) (A) (A) (A) (A)
                 (A) (A) (A) (A) (A) (A)
       Virtual   (A) (A) (A) (A) (A) (A) (A) (A) (A) (A) (A) (A)
                 (A) (A) (A) (A) (A) (A) (A) (A) (A) (A) (A) (A)
                 (A) (A) (A) (A) (A) (A) (A) (A) (A) (A) (A) (A)
                 (A) (A) (A) (A) (A) (A) (A) (A) (A) (A) (A) (A)
                 (A) (A) (A) (A) (A) (A) (A) (A) (A) (A) (A) (A)
                 (A) (A) (A) (A) (A) (A) (A) (A) (A) (A) (A) (A)
                 (A) (A) (A) (A) (A) (A) (A) (A) (A) (A) (A) (A)
                 (A) (A) (A) (A) (A) (A) (A) (A) (A) (A) (A) (A)
                 (A) (A) (A) (A) (A) (A) (A) (A) (A) (A) (A) (A)
                 (A) (A) (A) (A) (A) (A) (A) (A) (A) (A) (A) (A)
                 (A) (A) (A) (A) (A) (A) (A) (A) (A) (A) (A) (A)
                 (A) (A) (A) (A) (A) (A) (A) (A) (A) (A) (A) (A)
                 (A) (A) (A) (A) (A) (A) (A) (A) (A) (A) (A) (A)
                 (A) (A) (A) (A) (A) (A) (A) (A) (A) (A) (A) (A)
                 (A) (A) (A) (A) (A) (A) (A) (A) (A) (A) (A) (A)
                 (A) (A) (A) (A) (A) (A) (A) (A) (A) (A) (A) (A)
                 (A) (A) (A) (A) (A) (A) (A) (A) (A) (A) (A) (A)
                 (A) (A) (A) (A) (A) (A) (A) (A) (A) (A) (A) (A)
                 (A) (A) (A) (A) (A) (A) (A) (A) (A) (A) (A) (A)
                 (A) (A) (A) (A) (A) (A) (A) (A) (A) (A) (A) (A)
                 (A) (A) (A) (A) (A) (A) (A) (A) (A) (A) (A) (A)
                 (A) (A) (A) (A) (A) (A) (A) (A) (A) (A) (A) (A)
                 (A) (A) (A) (A) (A) (A) (A) (A) (A) (A) (A) (A)
                 (A) (A) (A) (A) (A) (A) (A) (A) (A) (A) (A) (A)
                 (A) (A) (A) (A) (A) (A) (A) (A) (A) (A) (A) (A)
                 (A) (A) (A) (A) (A) (A) (A) (A) (A) (A) (A) (A)
                 (A) (A) (A) (A) (A) (A) (A) (A) (A) (A) (A) (A)
                 (A) (A) (A) (A) (A) (A) (A) (A) (A) (A) (A) (A)
                 (A) (A) (A) (A) (A) (A) (A) (A) (A) (A) (A) (A)
                 (A) (A) (A) (A) (A) (A) (A) (A) (A) (A) (A) (A)
                 (A) (A) (A) (A) (A) (A) (A) (A) (A) (A) (A) (A)
                 (A) (A) (A) (A) (A) (A) (A) (A) (A) (A) (A) (A)
                 (A) (A) (A) (A) (A) (A) (A) (A) (A) (A) (A) (A)
                 (A) (A) (A) (A) (A) (A) (A) (A) (A) (A) (A) (A)
                 (A) (A) (A) (A) (A) (A) (A) (A) (A) (A) (A) (A)
                 (A) (A) (A) (A) (A) (A) (A) (A) (A) (A) (A) (A)
                 (A) (A) (A) (A) (A) (A) (A) (A) (A) (A) (A) (A)
                 (A) (A) (A) (A) (A) (A) (A) (A) (A) (A) (A) (A)
                 (A) (A) (A) (A) (A) (A) (A) (A) (A) (A) (A) (A)
                 (A) (A) (A) (A) (A) (A) (A) (A) (A) (A) (A) (A)
                 (A) (A) (A)
 The electronic state is 1-A.
 Alpha  occ. eigenvalues -- -100.63659 -14.14198  -9.95972  -9.95341  -9.95335
 Alpha  occ. eigenvalues --   -9.95111  -9.91582  -9.91300  -9.91230  -9.91126
 Alpha  occ. eigenvalues --   -9.90604  -9.90476  -9.90391  -9.90331  -9.89290
 Alpha  occ. eigenvalues --   -9.89182  -9.89166  -9.89138  -9.07521  -6.89347
 Alpha  occ. eigenvalues --   -6.89337  -6.89323  -0.94716  -0.74814  -0.74570
 Alpha  occ. eigenvalues --   -0.73892  -0.72988  -0.68541  -0.68108  -0.67871
 Alpha  occ. eigenvalues --   -0.64378  -0.62568  -0.61186  -0.59670  -0.59440
 Alpha  occ. eigenvalues --   -0.55003  -0.53514  -0.53236  -0.52309  -0.51953
 Alpha  occ. eigenvalues --   -0.49424  -0.47875  -0.46549  -0.45058  -0.43171
 Alpha  occ. eigenvalues --   -0.42127  -0.41756  -0.40285  -0.39784  -0.38951
 Alpha  occ. eigenvalues --   -0.38724  -0.38483  -0.37574  -0.37518  -0.36731
 Alpha  occ. eigenvalues --   -0.36660  -0.35329  -0.35066  -0.34703  -0.33532
 Alpha  occ. eigenvalues --   -0.33236  -0.32656  -0.32279  -0.31330  -0.31032
 Alpha  occ. eigenvalues --   -0.30874  -0.30690  -0.30524  -0.30256  -0.30139
 Alpha  occ. eigenvalues --   -0.29814  -0.29682  -0.29121  -0.28893  -0.28272
 Alpha  occ. eigenvalues --   -0.20546  -0.20492  -0.20203
 Alpha virt. eigenvalues --   -0.00165   0.01142   0.01672   0.01990   0.02647
 Alpha virt. eigenvalues --    0.03046   0.03593   0.03888   0.04521   0.04975
 Alpha virt. eigenvalues --    0.05441   0.05690   0.06258   0.06977   0.07082
 Alpha virt. eigenvalues --    0.07271   0.07865   0.08144   0.08471   0.08658
 Alpha virt. eigenvalues --    0.08762   0.09130   0.09357   0.09704   0.10075
 Alpha virt. eigenvalues --    0.10292   0.10832   0.10959   0.11276   0.11662
 Alpha virt. eigenvalues --    0.11757   0.12131   0.12430   0.12565   0.13256
 Alpha virt. eigenvalues --    0.13517   0.14095   0.14590   0.14689   0.14883
 Alpha virt. eigenvalues --    0.15442   0.15877   0.16359   0.16614   0.17084
 Alpha virt. eigenvalues --    0.17204   0.17764   0.17904   0.18089   0.18757
 Alpha virt. eigenvalues --    0.19471   0.20112   0.20643   0.21047   0.21311
 Alpha virt. eigenvalues --    0.21799   0.22325   0.22534   0.22958   0.23234
 Alpha virt. eigenvalues --    0.24264   0.25077   0.25227   0.25822   0.26519
 Alpha virt. eigenvalues --    0.26933   0.28076   0.28531   0.29386   0.29821
 Alpha virt. eigenvalues --    0.29982   0.30478   0.31047   0.31473   0.32589
 Alpha virt. eigenvalues --    0.33064   0.33384   0.33427   0.34751   0.34944
 Alpha virt. eigenvalues --    0.35685   0.35938   0.36310   0.36444   0.37292
 Alpha virt. eigenvalues --    0.37586   0.38222   0.38335   0.38606   0.39067
 Alpha virt. eigenvalues --    0.39218   0.39411   0.39677   0.39993   0.40568
 Alpha virt. eigenvalues --    0.40980   0.41196   0.41508   0.41840   0.41856
 Alpha virt. eigenvalues --    0.42095   0.42235   0.42475   0.42577   0.43103
 Alpha virt. eigenvalues --    0.43211   0.43714   0.43826   0.44269   0.44433
 Alpha virt. eigenvalues --    0.44662   0.45209   0.45295   0.45782   0.46126
 Alpha virt. eigenvalues --    0.46226   0.46655   0.46886   0.47522   0.47579
 Alpha virt. eigenvalues --    0.48087   0.48298   0.48669   0.49394   0.49569
 Alpha virt. eigenvalues --    0.49953   0.50977   0.51102   0.51749   0.52225
 Alpha virt. eigenvalues --    0.53603   0.53977   0.54317   0.54513   0.55233
 Alpha virt. eigenvalues --    0.55705   0.56465   0.57371   0.58589   0.59530
 Alpha virt. eigenvalues --    0.59879   0.60946   0.61329   0.62312   0.62980
 Alpha virt. eigenvalues --    0.63497   0.64515   0.65182   0.65772   0.66910
 Alpha virt. eigenvalues --    0.68500   0.70260   0.71171   0.73360   0.74373
 Alpha virt. eigenvalues --    0.76679   0.77654   0.79158   0.80857   0.81669
 Alpha virt. eigenvalues --    0.82850   0.85586   0.89091   0.91212   0.94370
 Alpha virt. eigenvalues --    1.03344   1.05133   1.07616   1.09285   1.10713
 Alpha virt. eigenvalues --    1.11812   1.13832   1.14163   1.15316   1.17748
 Alpha virt. eigenvalues --    1.18551   1.18680   1.19488   1.19841   1.20440
 Alpha virt. eigenvalues --    1.21055   1.21287   1.21707   1.22279   1.22645
 Alpha virt. eigenvalues --    1.22730   1.22999   1.23600   1.23789   1.24396
 Alpha virt. eigenvalues --    1.25392   1.25883   1.26046   1.27019   1.27088
 Alpha virt. eigenvalues --    1.28070   1.28353   1.28560   1.29116   1.29384
 Alpha virt. eigenvalues --    1.30229   1.30316   1.30696   1.31719   1.32305
 Alpha virt. eigenvalues --    1.32647   1.33017   1.33789   1.34079   1.34536
 Alpha virt. eigenvalues --    1.34861   1.35707   1.36465   1.36904   1.38096
 Alpha virt. eigenvalues --    1.38192   1.38799   1.39091   1.39933   1.40355
 Alpha virt. eigenvalues --    1.40722   1.41464   1.42276   1.43182   1.43715
 Alpha virt. eigenvalues --    1.43735   1.44839   1.44942   1.45422   1.46781
 Alpha virt. eigenvalues --    1.47120   1.48728   1.49211   1.49792   1.50215
 Alpha virt. eigenvalues --    1.50339   1.51773   1.52545   1.53139   1.54054
 Alpha virt. eigenvalues --    1.56079   1.56474   1.56760   1.57238   1.57938
 Alpha virt. eigenvalues --    1.58937   1.59342   1.60090   1.60868   1.62054
 Alpha virt. eigenvalues --    1.62575   1.63122   1.63828   1.63877   1.65040
 Alpha virt. eigenvalues --    1.65497   1.66126   1.66281   1.66802   1.68610
 Alpha virt. eigenvalues --    1.68757   1.69648   1.69963   1.70744   1.70923
 Alpha virt. eigenvalues --    1.71042   1.71824   1.71908   1.72162   1.72413
 Alpha virt. eigenvalues --    1.72519   1.72735   1.73241   1.73395   1.73467
 Alpha virt. eigenvalues --    1.73925   1.74242   1.74628   1.75397   1.75704
 Alpha virt. eigenvalues --    1.76053   1.76593   1.76826   1.77128   1.77837
 Alpha virt. eigenvalues --    1.78133   1.78288   1.78701   1.79258   1.79598
 Alpha virt. eigenvalues --    1.80291   1.80684   1.80945   1.82025   1.83135
 Alpha virt. eigenvalues --    1.83448   1.84431   1.85605   1.86300   1.86708
 Alpha virt. eigenvalues --    1.87360   1.87645   1.88098   1.88791   1.90318
 Alpha virt. eigenvalues --    1.91809   1.92825   1.94593   1.95338   1.95646
 Alpha virt. eigenvalues --    1.97582   1.98058   1.99815   2.00662   2.00928
 Alpha virt. eigenvalues --    2.03218   2.05086   2.07130   2.07864   2.08536
 Alpha virt. eigenvalues --    2.09415   2.09776   2.11595   2.12644   2.12765
 Alpha virt. eigenvalues --    2.13850   2.14982   2.15260   2.15718   2.17416
 Alpha virt. eigenvalues --    2.18323   2.18588   2.19257   2.20098   2.20793
 Alpha virt. eigenvalues --    2.21605   2.21746   2.23174   2.23256   2.24272
 Alpha virt. eigenvalues --    2.25871   2.26530   2.27585   2.28166   2.28435
 Alpha virt. eigenvalues --    2.30348   2.30494   2.32100   2.32525   2.32832
 Alpha virt. eigenvalues --    2.33244   2.33661   2.34246   2.34673   2.36475
 Alpha virt. eigenvalues --    2.37260   2.37848   2.39726   2.40048   2.40916
 Alpha virt. eigenvalues --    2.42114   2.42874   2.43479   2.43873   2.44543
 Alpha virt. eigenvalues --    2.45036   2.46635   2.47233   2.48151   2.48314
 Alpha virt. eigenvalues --    2.48879   2.49727   2.50439   2.50965   2.51794
 Alpha virt. eigenvalues --    2.51996   2.52916   2.53438   2.55441   2.56539
 Alpha virt. eigenvalues --    2.57102   2.57363   2.57965   2.58516   2.58824
 Alpha virt. eigenvalues --    2.59251   2.59636   2.59865   2.60351   2.60772
 Alpha virt. eigenvalues --    2.61369   2.62136   2.62777   2.63045   2.63373
 Alpha virt. eigenvalues --    2.63720   2.64438   2.65046   2.66464   2.66842
 Alpha virt. eigenvalues --    2.67500   2.70023   2.71753   2.72335   2.73994
 Alpha virt. eigenvalues --    2.75307   2.75990   2.77329   2.79108   2.81488
 Alpha virt. eigenvalues --    2.84061   2.85458   2.87619   2.88302   2.92951
 Alpha virt. eigenvalues --    2.94336   2.95737   2.97480   2.99760   3.03093
 Alpha virt. eigenvalues --    3.03915   3.04429   3.05336   3.08576   3.09328
 Alpha virt. eigenvalues --    3.10532   3.13356   3.14607   3.15133   3.17325
 Alpha virt. eigenvalues --    3.20561   3.20671   3.21448   3.21874   3.22397
 Alpha virt. eigenvalues --    3.22994   3.24281   3.25134   3.25700   3.27150
 Alpha virt. eigenvalues --    3.27727   3.28230   3.28994   3.29630   3.30280
 Alpha virt. eigenvalues --    3.30854   3.31576   3.32169   3.32937   3.33795
 Alpha virt. eigenvalues --    3.34640   3.35170   3.36012   3.36297   3.37718
 Alpha virt. eigenvalues --    3.38578   3.39414   3.40524   3.40770   3.42265
 Alpha virt. eigenvalues --    3.43701   3.45561   3.66772   3.67784   3.68915
 Alpha virt. eigenvalues --   21.71925  21.72289  21.73304  21.73718  21.77525
 Alpha virt. eigenvalues --   21.78062  21.80657  21.81230  21.82784  21.84375
 Alpha virt. eigenvalues --   21.87453  21.88589  21.91987  21.94612  21.96729
 Alpha virt. eigenvalues --   22.00523  24.27764  31.85143
          Condensed to atoms (all electrons):
 Mulliken charges:
               1
     1  C   -0.423824
     2  C   -0.236120
     3  C   -0.248670
     4  C   -0.323991
     5  N   -0.047126
     6  C   -0.290600
     7  C   -0.243769
     8  C   -0.256858
     9  C   -0.421071
    10  C   -0.392520
    11  C   -0.218487
    12  C   -0.244823
    13  C   -0.394948
    14  C   -0.190949
    15  C   -0.287286
    16  C   -0.277282
    17  C   -0.387684
    18  Cl  -0.869585
    19  H    0.142717
    20  H    0.145770
    21  H    0.133152
    22  H    0.141861
    23  H    0.151028
    24  H    0.190450
    25  H    0.154586
    26  H    0.189902
    27  H    0.225196
    28  H    0.217006
    29  H    0.171492
    30  H    0.158629
    31  H    0.169372
    32  H    0.154514
    33  H    0.138513
    34  H    0.135479
    35  H    0.133939
    36  H    0.147917
    37  H    0.234360
    38  H    0.232371
    39  H    0.150667
    40  H    0.176374
    41  H    0.140242
    42  H    0.136165
    43  H    0.131782
    44  H    0.144465
    45  H    0.133554
    46  H    0.196597
    47  H    0.176214
    48  H    0.170103
    49  H    0.153142
    50  H    0.135004
    51  H    0.138194
    52  H    0.132084
    53  H    0.129239
    54  H    0.143513
 Sum of Mulliken charges =  -0.00000
 Mulliken charges with hydrogens summed into heavy atoms:
               1
     1  C   -0.002186
     2  C    0.056769
     3  C    0.096367
     4  C    0.091107
     5  N   -0.047126
     6  C    0.097897
     7  C    0.084232
     8  C    0.036169
     9  C   -0.003736
    10  C    0.074212
    11  C    0.108554
    12  C    0.031585
    13  C    0.014854
    14  C    0.181861
    15  C    0.035958
    16  C   -0.004085
    17  C    0.017152
    18  Cl  -0.869585
 Electronic spatial extent (au):  <R**2>=           7363.1874
 Charge=              0.0000 electrons
 Dipole moment (field-independent basis, Debye):
    X=              9.0699    Y=            -10.2684    Z=            -10.1447  Tot=             17.0476
 Quadrupole moment (field-independent basis, Debye-Ang):
   XX=           -135.3757   YY=           -144.0757   ZZ=           -140.8764
   XY=             23.7156   XZ=             17.7094   YZ=            -24.1659
 Traceless Quadrupole moment (field-independent basis, Debye-Ang):
   XX=              4.7336   YY=             -3.9664   ZZ=             -0.7672
   XY=             23.7156   XZ=             17.7094   YZ=            -24.1659
 Octapole moment (field-independent basis, Debye-Ang**2):
  XXX=             45.3443  YYY=            -77.7783  ZZZ=            -62.3198  XYY=             69.1370
  XXY=            -42.9437  XXZ=            -52.5902  XZZ=             40.6733  YZZ=            -52.1783
  YYZ=            -61.3720  XYZ=             55.7973
 Hexadecapole moment (field-independent basis, Debye-Ang**3):
 XXXX=          -4757.7859 YYYY=          -3442.3399 ZZZZ=          -2356.9549 XXXY=            123.5654
 XXXZ=             77.6316 YYYX=            204.0746 YYYZ=           -181.6444 ZZZX=             95.2478
 ZZZY=           -133.0377 XXYY=          -1412.7660 XXZZ=          -1218.6458 YYZZ=          -1040.9482
 XXYZ=           -112.5079 YYXZ=             99.6766 ZZXY=            105.0549
 N-N= 1.623148234127D+03 E-N=-5.926597539878D+03  KE= 1.141030394271D+03
 No NMR shielding tensors so no spin-rotation constants.
 Leave Link  601 at Sat Aug 21 09:34:10 2021, MaxMem=   104857600 cpu:               9.4 elap:               0.5
 (Enter /sw/arch/RedHatEnterpriseServer7/EB_production/2020/software/Gaussian/g16.c01/l701.exe)
 ... and contract with generalized density number  0.
 Compute integral first derivatives.
 R6Disp: Adding Grimme-D3 dispersion energy 1st derivatives to the gradient.
 D1PCM: PCM CHGder 1st derivatives, ID1Alg=3 FixD1E=F DoIter=F DoCFld=F I1PDM=0.
 GePol: Maximum number of non-zero 1st derivatives   =     253
 Leave Link  701 at Sat Aug 21 09:34:13 2021, MaxMem=   104857600 cpu:              71.0 elap:               3.0
 (Enter /sw/arch/RedHatEnterpriseServer7/EB_production/2020/software/Gaussian/g16.c01/l702.exe)
 L702 exits ... SP integral derivatives will be done elsewhere.
 Leave Link  702 at Sat Aug 21 09:34:13 2021, MaxMem=   104857600 cpu:               0.5 elap:               0.1
 (Enter /sw/arch/RedHatEnterpriseServer7/EB_production/2020/software/Gaussian/g16.c01/l703.exe)
 Integral derivatives from FoFJK, PRISM(SPDF).
 Compute integral first derivatives, UseDBF=F ICtDFT=           0.
 Calling FoFJK, ICntrl=      2527 FMM=F ISym2X=0 I1Cent= 0 IOpClX= 0 NMat=1 NMatS=1 NMatT=0.
 FoFJK:  IHMeth= 1 ICntrl=    2527 DoSepK=F KAlg= 0 I1Cent=           0 FoldK=F
 IRaf=         0 NMat=       1 IRICut=       1 DoRegI=T DoRafI=F ISym2E= 0 IDoP0=0 IntGTp=1.
 FoFCou: FMM=F IPFlag=           0 FMFlag=      100000 FMFlg1=         800
         NFxFlg=           0 DoJE=F BraDBF=F KetDBF=F FulRan=T
[...]
   46      H46      5.17  -0.041   -0.82    0.73   -0.32
   47      H47      2.62  -0.006    0.05    0.37   -0.02
   48      H48      5.81  -0.030   -0.64    0.82   -0.48
   49      H49      5.35  -0.025   -0.10    0.76   -0.14
   50      H50      6.57  -0.018    0.13    0.93   -0.59
   51      H51      6.58  -0.021   -0.23    0.93   -0.83
   52      H52      6.55  -0.019   -0.05    0.92   -0.74
   53      H53      6.55  -0.019   -0.19    0.92   -0.75
   54      H54      6.54  -0.022   -0.09    0.92   -0.79
 --------------------------------------------------------------------
 - cavitation energy not included in the total energy.
 - dispersion energy not included in the total energy.
 - repulsion  energy not included in the total energy.
 After PCM corrections, the energy is  -1146.62580612     a.u.
 --------------------------------------------------------------------
 Writing COSMO formatted file "NHGXDBSUJJNIRV-UHFFFAOYSA-M.cosmo"
 Recomputed dielectric energy= -0.067655 old= -0.067730 diff= 7.46D-05

 **********************************************************************

            Population analysis using the SCF Density.

 **********************************************************************

 Orbital symmetries:
       Occupied  (A) (A) (A) (A) (A) (A) (A) (A) (A) (A) (A) (A)
                 (A) (A) (A) (A) (A) (A) (A) (A) (A) (A) (A) (A)
                 (A) (A) (A) (A) (A) (A) (A) (A) (A) (A) (A) (A)
                 (A) (A) (A) (A) (A) (A) (A) (A) (A) (A) (A) (A)
                 (A) (A) (A) (A) (A) (A) (A) (A) (A) (A) (A) (A)
                 (A) (A) (A) (A) (A) (A) (A) (A) (A) (A) (A) (A)
                 (A) (A) (A) (A) (A) (A)
       Virtual   (A) (A) (A) (A) (A) (A) (A) (A) (A) (A) (A) (A)
                 (A) (A) (A) (A) (A) (A) (A) (A) (A) (A) (A) (A)
                 (A) (A) (A) (A) (A) (A) (A) (A) (A) (A) (A) (A)
                 (A) (A) (A) (A) (A) (A) (A) (A) (A) (A) (A) (A)
                 (A) (A) (A) (A) (A) (A) (A) (A) (A) (A) (A) (A)
                 (A) (A) (A) (A) (A) (A) (A) (A) (A) (A) (A) (A)
                 (A) (A) (A) (A) (A) (A) (A) (A) (A) (A) (A) (A)
                 (A) (A) (A) (A) (A) (A) (A) (A) (A) (A) (A) (A)
                 (A) (A) (A) (A) (A) (A) (A) (A) (A) (A) (A) (A)
                 (A) (A) (A) (A) (A) (A) (A) (A) (A) (A) (A) (A)
                 (A) (A) (A) (A) (A) (A) (A) (A) (A) (A) (A) (A)
                 (A) (A) (A) (A) (A) (A) (A) (A) (A) (A) (A) (A)
                 (A) (A) (A) (A) (A) (A) (A) (A) (A) (A) (A) (A)
                 (A) (A) (A) (A) (A) (A) (A) (A) (A) (A) (A) (A)
                 (A) (A) (A) (A) (A) (A) (A) (A) (A) (A) (A) (A)
                 (A) (A) (A) (A) (A) (A) (A) (A) (A) (A) (A) (A)
                 (A) (A) (A) (A) (A) (A) (A) (A) (A) (A) (A) (A)
                 (A) (A) (A) (A) (A) (A) (A) (A) (A) (A) (A) (A)
                 (A) (A) (A) (A) (A) (A) (A) (A) (A) (A) (A) (A)
                 (A) (A) (A) (A) (A) (A) (A) (A) (A) (A) (A) (A)
                 (A) (A) (A) (A) (A) (A) (A) (A) (A) (A) (A) (A)
                 (A) (A) (A) (A) (A) (A) (A) (A) (A) (A) (A) (A)
                 (A) (A) (A) (A) (A) (A) (A) (A) (A) (A) (A) (A)
                 (A) (A) (A) (A) (A) (A) (A) (A) (A) (A) (A) (A)
                 (A) (A) (A) (A) (A) (A) (A) (A) (A) (A) (A) (A)
                 (A) (A) (A) (A) (A) (A) (A) (A) (A) (A) (A) (A)
                 (A) (A) (A) (A) (A) (A) (A) (A) (A) (A) (A) (A)
                 (A) (A) (A) (A) (A) (A) (A) (A) (A) (A) (A) (A)
                 (A) (A) (A) (A) (A) (A) (A) (A) (A) (A) (A) (A)
                 (A) (A) (A) (A) (A) (A) (A) (A) (A) (A) (A) (A)
                 (A) (A) (A) (A) (A) (A) (A) (A) (A) (A) (A) (A)
                 (A) (A) (A) (A) (A) (A) (A) (A) (A) (A) (A) (A)
                 (A) (A) (A) (A) (A) (A) (A) (A) (A) (A) (A) (A)
                 (A) (A) (A) (A) (A) (A) (A) (A) (A) (A) (A) (A)
                 (A) (A) (A) (A) (A) (A) (A) (A) (A) (A) (A) (A)
                 (A) (A) (A) (A) (A) (A) (A) (A) (A) (A) (A) (A)
                 (A) (A) (A) (A) (A) (A) (A) (A) (A) (A) (A) (A)
                 (A) (A) (A) (A) (A) (A) (A) (A) (A) (A) (A) (A)
                 (A) (A) (A) (A) (A) (A) (A) (A) (A) (A) (A) (A)
                 (A) (A) (A) (A) (A) (A) (A) (A) (A) (A) (A) (A)
                 (A) (A) (A)
 The electronic state is 1-A.
 Alpha  occ. eigenvalues -- -100.64570 -14.11939  -9.94388  -9.94088  -9.94051
 Alpha  occ. eigenvalues --   -9.93909  -9.90235  -9.90189  -9.90093  -9.90085
 Alpha  occ. eigenvalues --   -9.89708  -9.89647  -9.89644  -9.89599  -9.88375
 Alpha  occ. eigenvalues --   -9.88364  -9.88343  -9.88336  -9.08440  -6.90255
 Alpha  occ. eigenvalues --   -6.90254  -6.90249  -0.91950  -0.73961  -0.73849
 Alpha  occ. eigenvalues --   -0.73324  -0.72159  -0.67522  -0.67177  -0.66769
 Alpha  occ. eigenvalues --   -0.63715  -0.63421  -0.60731  -0.58809  -0.58517
 Alpha  occ. eigenvalues --   -0.54370  -0.52952  -0.52867  -0.51467  -0.51440
 Alpha  occ. eigenvalues --   -0.47527  -0.46554  -0.45040  -0.43742  -0.42482
 Alpha  occ. eigenvalues --   -0.41157  -0.41030  -0.39383  -0.38970  -0.38368
 Alpha  occ. eigenvalues --   -0.37710  -0.37417  -0.37101  -0.36483  -0.36387
 Alpha  occ. eigenvalues --   -0.35995  -0.34720  -0.34244  -0.34131  -0.32883
 Alpha  occ. eigenvalues --   -0.32751  -0.32064  -0.31759  -0.30809  -0.30557
 Alpha  occ. eigenvalues --   -0.30332  -0.30047  -0.29757  -0.29620  -0.29347
 Alpha  occ. eigenvalues --   -0.29046  -0.28806  -0.28779  -0.28417  -0.28297
 Alpha  occ. eigenvalues --   -0.21500  -0.21465  -0.21135
 Alpha virt. eigenvalues --    0.00825   0.02148   0.02513   0.02959   0.03195
 Alpha virt. eigenvalues --    0.04020   0.04632   0.04771   0.05227   0.05808
 Alpha virt. eigenvalues --    0.06261   0.06384   0.07105   0.07597   0.08157
 Alpha virt. eigenvalues --    0.08356   0.08583   0.09194   0.09339   0.09424
 Alpha virt. eigenvalues --    0.09542   0.09891   0.10288   0.10448   0.10789
 Alpha virt. eigenvalues --    0.10963   0.11499   0.11851   0.11959   0.12274
 Alpha virt. eigenvalues --    0.12756   0.13016   0.13128   0.13443   0.14058
 Alpha virt. eigenvalues --    0.14309   0.15103   0.15471   0.15517   0.16227
 Alpha virt. eigenvalues --    0.16364   0.16704   0.17043   0.17273   0.17576
 Alpha virt. eigenvalues --    0.18017   0.18205   0.18637   0.19028   0.19135
 Alpha virt. eigenvalues --    0.20257   0.20608   0.20826   0.21705   0.22062
 Alpha virt. eigenvalues --    0.22461   0.22626   0.23064   0.23143   0.23763
 Alpha virt. eigenvalues --    0.24598   0.25632   0.26268   0.27052   0.27404
 Alpha virt. eigenvalues --    0.27831   0.28416   0.29313   0.29565   0.30562
 Alpha virt. eigenvalues --    0.31233   0.31621   0.31984   0.32659   0.32729
 Alpha virt. eigenvalues --    0.33705   0.34099   0.34907   0.34943   0.35549
 Alpha virt. eigenvalues --    0.36252   0.36488   0.37315   0.37538   0.37784
 Alpha virt. eigenvalues --    0.38096   0.38822   0.39269   0.39538   0.39761
 Alpha virt. eigenvalues --    0.40053   0.40172   0.40605   0.40752   0.41323
 Alpha virt. eigenvalues --    0.41752   0.42050   0.42114   0.42321   0.42672
 Alpha virt. eigenvalues --    0.42856   0.43110   0.43358   0.43582   0.43769
 Alpha virt. eigenvalues --    0.43855   0.44039   0.44635   0.44832   0.45158
 Alpha virt. eigenvalues --    0.45376   0.45771   0.45814   0.46071   0.46908
 Alpha virt. eigenvalues --    0.46937   0.47166   0.47722   0.48271   0.48454
 Alpha virt. eigenvalues --    0.48768   0.49322   0.49821   0.50150   0.50637
 Alpha virt. eigenvalues --    0.50826   0.51826   0.52315   0.52502   0.53518
 Alpha virt. eigenvalues --    0.53595   0.54025   0.54663   0.55510   0.55976
 Alpha virt. eigenvalues --    0.56629   0.57691   0.59127   0.59889   0.60774
 Alpha virt. eigenvalues --    0.61295   0.62001   0.62825   0.63420   0.63914
 Alpha virt. eigenvalues --    0.64863   0.64946   0.65417   0.65967   0.67750
 Alpha virt. eigenvalues --    0.69110   0.70696   0.71942   0.72433   0.75788
 Alpha virt. eigenvalues --    0.76247   0.78454   0.79559   0.80706   0.81214
 Alpha virt. eigenvalues --    0.83507   0.86087   0.89722   0.90361   0.96445
 Alpha virt. eigenvalues --    1.04864   1.06040   1.09096   1.10522   1.11345
 Alpha virt. eigenvalues --    1.12546   1.14828   1.15219   1.16516   1.17634
 Alpha virt. eigenvalues --    1.19339   1.19548   1.20302   1.20611   1.20853
 Alpha virt. eigenvalues --    1.21221   1.21981   1.22173   1.22643   1.22889
 Alpha virt. eigenvalues --    1.23884   1.24046   1.24349   1.24726   1.25270
 Alpha virt. eigenvalues --    1.25813   1.26316   1.26471   1.27011   1.27193
 Alpha virt. eigenvalues --    1.28264   1.28918   1.29060   1.29185   1.29576
 Alpha virt. eigenvalues --    1.30564   1.31268   1.31738   1.32236   1.32786
 Alpha virt. eigenvalues --    1.33168   1.33628   1.33795   1.35053   1.35709
 Alpha virt. eigenvalues --    1.36169   1.36609   1.37110   1.38164   1.38426
 Alpha virt. eigenvalues --    1.38936   1.39249   1.40239   1.40953   1.41947
 Alpha virt. eigenvalues --    1.42667   1.43069   1.43737   1.44273   1.44951
 Alpha virt. eigenvalues --    1.45727   1.46374   1.46513   1.47225   1.47599
 Alpha virt. eigenvalues --    1.48451   1.49026   1.49969   1.50531   1.51240
 Alpha virt. eigenvalues --    1.51366   1.51986   1.53125   1.53916   1.54563
 Alpha virt. eigenvalues --    1.56171   1.57059   1.57321   1.57908   1.58392
 Alpha virt. eigenvalues --    1.59056   1.60766   1.61433   1.61933   1.62747
 Alpha virt. eigenvalues --    1.64026   1.64685   1.65315   1.65593   1.66034
 Alpha virt. eigenvalues --    1.66604   1.67535   1.67921   1.68543   1.69024
 Alpha virt. eigenvalues --    1.69339   1.69823   1.70419   1.71389   1.72011
 Alpha virt. eigenvalues --    1.72182   1.72487   1.72817   1.72950   1.73103
 Alpha virt. eigenvalues --    1.73477   1.73626   1.74045   1.74479   1.74891
 Alpha virt. eigenvalues --    1.75228   1.75423   1.76011   1.76439   1.77093
 Alpha virt. eigenvalues --    1.77533   1.77993   1.78218   1.78735   1.78843
 Alpha virt. eigenvalues --    1.79881   1.80180   1.80390   1.80972   1.81127
 Alpha virt. eigenvalues --    1.81893   1.82343   1.82647   1.83415   1.83694
 Alpha virt. eigenvalues --    1.84527   1.85002   1.85223   1.86183   1.87102
 Alpha virt. eigenvalues --    1.87727   1.88251   1.89836   1.90047   1.91190
 Alpha virt. eigenvalues --    1.92112   1.94791   1.95028   1.95799   1.97422
 Alpha virt. eigenvalues --    1.98913   1.99129   2.00326   2.00582   2.02683
 Alpha virt. eigenvalues --    2.04075   2.06779   2.08074   2.09436   2.10009
 Alpha virt. eigenvalues --    2.11087   2.12052   2.13466   2.14546   2.15278
 Alpha virt. eigenvalues --    2.15412   2.16633   2.17816   2.18805   2.19368
 Alpha virt. eigenvalues --    2.19991   2.20430   2.21238   2.21992   2.23278
 Alpha virt. eigenvalues --    2.24236   2.24698   2.25403   2.26351   2.27224
 Alpha virt. eigenvalues --    2.27446   2.28519   2.28669   2.29730   2.29906
 Alpha virt. eigenvalues --    2.30384   2.30895   2.33459   2.33738   2.34419
 Alpha virt. eigenvalues --    2.35010   2.35246   2.36312   2.37404   2.37882
 Alpha virt. eigenvalues --    2.39661   2.39948   2.40848   2.41234   2.43188
 Alpha virt. eigenvalues --    2.43741   2.45086   2.45902   2.46199   2.46964
 Alpha virt. eigenvalues --    2.48217   2.48445   2.49233   2.49806   2.49987
 Alpha virt. eigenvalues --    2.50566   2.50840   2.52669   2.52961   2.53835
 Alpha virt. eigenvalues --    2.54500   2.54595   2.55357   2.55702   2.57491
 Alpha virt. eigenvalues --    2.57728   2.58546   2.59123   2.59638   2.59866
 Alpha virt. eigenvalues --    2.60344   2.60810   2.61112   2.61456   2.62205
 Alpha virt. eigenvalues --    2.63074   2.63130   2.64378   2.64689   2.65084
 Alpha virt. eigenvalues --    2.65228   2.65744   2.66894   2.68344   2.69841
 Alpha virt. eigenvalues --    2.70537   2.71706   2.73359   2.74374   2.76284
 Alpha virt. eigenvalues --    2.77104   2.78938   2.79413   2.81087   2.82056
 Alpha virt. eigenvalues --    2.83944   2.86238   2.89744   2.90518   2.92177
 Alpha virt. eigenvalues --    2.93947   3.00344   3.01425   3.02622   3.04730
 Alpha virt. eigenvalues --    3.05821   3.07088   3.08956   3.11282   3.13283
 Alpha virt. eigenvalues --    3.14862   3.15456   3.17493   3.19363   3.19983
 Alpha virt. eigenvalues --    3.23470   3.24020   3.24337   3.24861   3.25168
 Alpha virt. eigenvalues --    3.25719   3.26166   3.27632   3.27983   3.28430
 Alpha virt. eigenvalues --    3.28995   3.29884   3.30619   3.30737   3.31479
 Alpha virt. eigenvalues --    3.31845   3.32517   3.33694   3.34177   3.35350
 Alpha virt. eigenvalues --    3.35562   3.36321   3.37089   3.37627   3.38280
 Alpha virt. eigenvalues --    3.39096   3.40655   3.40958   3.42087   3.42791
 Alpha virt. eigenvalues --    3.43857   3.46658   3.65028   3.65948   3.67205
 Alpha virt. eigenvalues --   21.74628  21.75246  21.76000  21.77007  21.79049
 Alpha virt. eigenvalues --   21.80071  21.82340  21.82657  21.85838  21.86262
 Alpha virt. eigenvalues --   21.89710  21.90711  21.95045  21.97565  21.99454
 Alpha virt. eigenvalues --   22.01038  24.30419  31.89596
          Condensed to atoms (all electrons):
 Mulliken charges:
               1
     1  C   -0.457464
     2  C   -0.244238
     3  C   -0.258300
     4  C   -0.313290
     5  N   -0.115875
     6  C   -0.280912
     7  C   -0.245100
     8  C   -0.253316
     9  C   -0.452172
    10  C   -0.320190
    11  C   -0.254171
    12  C   -0.260249
    13  C   -0.423922
    14  C   -0.198490
    15  C   -0.304009
    16  C   -0.264965
    17  C   -0.415319
    18  Cl  -0.883455
    19  H    0.152269
    20  H    0.151587
    21  H    0.139227
    22  H    0.143238
    23  H    0.154126
    24  H    0.200925
    25  H    0.169623
    26  H    0.175969
    27  H    0.240214
    28  H    0.227330
    29  H    0.167721
    30  H    0.171156
    31  H    0.181189
    32  H    0.158117
    33  H    0.138721
    34  H    0.145971
    35  H    0.138616
    36  H    0.154110
    37  H    0.223016
    38  H    0.233099
    39  H    0.180364
    40  H    0.175942
    41  H    0.142665
    42  H    0.141754
    43  H    0.136608
    44  H    0.149293
    45  H    0.138543
    46  H    0.208857
    47  H    0.169527
    48  H    0.170366
    49  H    0.168135
    50  H    0.132920
    51  H    0.142686
    52  H    0.137209
    53  H    0.135587
    54  H    0.148758
 Sum of Mulliken charges =  -0.00000
 Mulliken charges with hydrogens summed into heavy atoms:
               1
     1  C   -0.014382
     2  C    0.053126
     3  C    0.112248
     4  C    0.102894
     5  N   -0.115875
     6  C    0.114138
     7  C    0.107245
     8  C    0.043522
     9  C   -0.013475
    10  C    0.135925
    11  C    0.102135
    12  C    0.024169
    13  C    0.000523
    14  C    0.179894
    15  C    0.034492
    16  C    0.010640
    17  C    0.006235
    18  Cl  -0.883455
 Electronic spatial extent (au):  <R**2>=           7389.9524
 Charge=             -0.0000 electrons
 Dipole moment (field-independent basis, Debye):
    X=             11.6792    Y=             -8.7964    Z=            -10.2229  Tot=             17.8406
 Quadrupole moment (field-independent basis, Debye-Ang):
   XX=           -146.6139   YY=           -136.5984   ZZ=           -139.3887
   XY=             24.2248   XZ=             22.0534   YZ=            -19.8433
 Traceless Quadrupole moment (field-independent basis, Debye-Ang):
   XX=             -5.7469   YY=              4.2686   ZZ=              1.4783
   XY=             24.2248   XZ=             22.0534   YZ=            -19.8433
 Octapole moment (field-independent basis, Debye-Ang**2):
  XXX=             83.7428  YYY=            -47.0114  ZZZ=            -59.1593  XYY=             60.6596
  XXY=            -57.4236  XXZ=            -70.6030  XZZ=             49.3564  YZZ=            -42.6445
  YYZ=            -41.9763  XYZ=             51.9891
 Hexadecapole moment (field-independent basis, Debye-Ang**3):
 XXXX=          -5025.3120 YYYY=          -3244.4579 ZZZZ=          -2343.8524 XXXY=            169.6281
 XXXZ=            153.3576 YYYX=            157.4381 YYYZ=           -113.3510 ZZZX=            113.8757
 ZZZY=           -107.5672 XXYY=          -1440.5849 XXZZ=          -1281.4339 YYZZ=           -980.2900
 XXYZ=           -128.8519 YYXZ=             91.5929 ZZXY=            104.3965
 N-N= 1.620985100327D+03 E-N=-5.922309340417D+03  KE= 1.141373338053D+03
 Unable to Open any file for archive entry.
 1\1\GINC-TCN1030\SP\RBP86\TZVP\C16H36Cl1N1\ELENAA\21-Aug-2021\0\\# BP8
 6/TZVP SCRF=COSMORS geom=CHECKPOINT guess=CHECKPOINT\\COSMO-file for #
 NHGXDBSUJJNIRV-UHFFFAOYSA-M\\0,1\C,0,2.1032421087,3.8575297116,2.73570
 89317\C,0,2.8787853262,2.6759820968,2.1364832112\C,0,2.1209563148,1.92
 01634339,1.0265337677\C,0,0.8254408597,1.3246884238,1.5774788649\N,0,0
 .0653695789,0.3301258141,0.6798355287\C,0,-1.3869901508,0.3567019875,1
 .1802512073\C,0,-2.3539802538,-0.5959791005,0.4832374578\C,0,-3.804202
 2764,-0.3206352477,0.9322199812\C,0,-4.3799145469,1.0014797931,0.40638
 82408\C,0,0.1494195041,0.7065883748,-0.7922096157\C,0,-0.5443420716,2.
 0146081943,-1.1629806946\C,0,-0.1783067167,2.4330503039,-2.5959054315\
 C,0,-0.8980962134,3.7164209896,-3.0252290026\C,0,0.5842385443,-1.09891
 22007,0.884739916\C,0,2.0797748945,-1.3333044819,0.7113399024\C,0,2.38
 2327885,-2.8361024354,0.8471592496\C,0,3.8806607343,-3.1376166484,0.72
 89409072\Cl,0,0.0341897045,-0.8408795825,4.4182376703\H,0,1.2180909292
 ,3.527109886,3.3002315208\H,0,2.7367795794,4.4302238552,3.4291808957\H
 ,0,1.7608164911,4.5450452798,1.945410492\H,0,3.1533531314,1.9647076373
 ,2.9343027143\H,0,3.8254492476,3.0401068457,1.7063385106\H,0,2.7803388
 674,1.1441499489,0.6187413489\H,0,1.9019404398,2.6195797492,0.20372718
 47\H,0,0.9846363807,0.7818231149,2.522662749\H,0,0.1127011556,2.132145
 083,1.7847471108\H,0,-1.7159106067,1.3964853169,1.0710093177\H,0,-1.31
 6763479,0.1272085788,2.2554140268\H,0,-2.2977364903,-0.4877173301,-0.6
 122593772\H,0,-2.0967887191,-1.6381661554,0.7212850887\H,0,-4.43023041
 25,-1.1545056627,0.5773263026\H,0,-3.8561606874,-0.3448222779,2.034278
 6839\H,0,-3.8412684269,1.8779961192,0.797928274\H,0,-4.3292886552,1.04
 0814888,-0.6935537348\H,0,-5.434789416,1.1131778829,0.6981816021\H,0,-
 0.2804989779,-0.133046972,-1.3536967246\H,0,1.2161341121,0.7485268888,
 -1.041688156\H,0,-0.2590139834,2.8200814842,-0.4671461576\H,0,-1.63747
 46296,1.9017490935,-1.0887670554\H,0,-0.4300017078,1.61332775,-3.29037
 39291\H,0,0.9137560765,2.5754710509,-2.6638298917\H,0,-0.6414210672,4.
 5548274912,-2.358445945\H,0,-0.6216484118,4.0038972571,-4.0504824911\H
 ,0,-1.9913649757,3.5861034639,-2.9942565651\H,0,0.024953791,-1.7206622
 493,0.1736740186\H,0,0.2851212854,-1.3620877799,1.9118182538\H,0,2.434
 9866796,-0.9835096914,-0.2711789974\H,0,2.64377356,-0.7904083186,1.485
 1516242\H,0,2.0047360998,-3.193520205,1.8205185844\H,0,1.8266840402,-3
 .3920695147,0.0727188238\H,0,4.4518040724,-2.6170803617,1.5138568098\H
 ,0,4.2745458418,-2.8090442067,-0.2459390817\H,0,4.0787314102,-4.215425
 2902,0.8266999349\\Version=ES64L-G16RevC.01\State=1-A\HF=-1146.6258061
 \RMSD=9.226e-10\Dipole=0.083547,2.105575,-6.69527\Quadrupole=17.424645
 3,9.8755512,-27.3001965,0.3142416,2.7399994,15.6462331\PG=C01 [X(C16H3
 6Cl1N1)]\\@
 The archive entry for this job was punched.


 AND THIS OUR LIFE, EXEMPT FROM PUBLIC HAUNT,
 FINDS TONGUES IN TREES, BOOKS IN THE RUNNING BROOKS,
 SERMONS IN STONES, AND GOOD IN EVERYTHING.
 I WOULD NOT CHANGE IT. -- W. SHAKESPEARE
 AS YOU LIKE IT, ACT II, SCENE 1.
 Job cpu time:       0 days  0 hours 39 minutes 27.0 seconds.
 Elapsed time:       0 days  0 hours  1 minutes 40.1 seconds.
 File lengths (MBytes):  RWF=    248 Int=      0 D2E=      0 Chk=     31 Scr=      1
 Normal termination of Gaussian 16 at Sat Aug 21 10:22:11 2021.
