 Entering Gaussian System, Link 0=g16
 Input=NJMWOUFKYKNWDW-UHFFFAOYSA-N.gjf
 Output=NJMWOUFKYKNWDW-UHFFFAOYSA-N.log
 Initial command:
 /sw/arch/RedHatEnterpriseServer7/EB_production/2019/software/Gaussian/g16.c01/l1.exe "/scratch-local/elenaa.9716206/Gau-21338.inp" -scrdir="/scratch-local/elenaa.9716206/"
 Entering Link 1 = /sw/arch/RedHatEnterpriseServer7/EB_production/2019/software/Gaussian/g16.c01/l1.exe PID=     21340.
  
 Copyright (c) 1988-2019, Gaussian, Inc.  All Rights Reserved.
  
 This is part of the Gaussian(R) 16 program.  It is based on
 the Gaussian(R) 09 system (copyright 2009, Gaussian, Inc.),
 the Gaussian(R) 03 system (copyright 2003, Gaussian, Inc.),
 the Gaussian(R) 98 system (copyright 1998, Gaussian, Inc.),
 the Gaussian(R) 94 system (copyright 1995, Gaussian, Inc.),
 the Gaussian 92(TM) system (copyright 1992, Gaussian, Inc.),
 the Gaussian 90(TM) system (copyright 1990, Gaussian, Inc.),
 the Gaussian 88(TM) system (copyright 1988, Gaussian, Inc.),
 the Gaussian 86(TM) system (copyright 1986, Carnegie Mellon
 University), and the Gaussian 82(TM) system (copyright 1983,
 Carnegie Mellon University). Gaussian is a federally registered
 trademark of Gaussian, Inc.
  
 This software contains proprietary and confidential information,
 including trade secrets, belonging to Gaussian, Inc.
  
 This software is provided under written license and may be
 used, copied, transmitted, or stored only in accord with that
 written license.
  
 The following legend is applicable only to US Government
 contracts under FAR:
  
                    RESTRICTED RIGHTS LEGEND
  
 Use, reproduction and disclosure by the US Government is
 subject to restrictions as set forth in subparagraphs (a)
 and (c) of the Commercial Computer Software - Restricted
 Rights clause in FAR 52.227-19.
  
 Gaussian, Inc.
 340 Quinnipiac St., Bldg. 40, Wallingford CT 06492
  
  
 ---------------------------------------------------------------
 Warning -- This program may not be used in any manner that
 competes with the business of Gaussian, Inc. or will provide
 assistance to any competitor of Gaussian, Inc.  The licensee
 of this program is prohibited from giving any competitor of
 Gaussian, Inc. access to this program.  By using this program,
 the user acknowledges that Gaussian, Inc. is engaged in the
 business of creating and licensing software in the field of
 computational chemistry and represents and warrants to the
 licensee that it is not a competitor of Gaussian, Inc. and that
 it will not use this program in any manner prohibited above.
 ---------------------------------------------------------------
  

 Cite this work as:
 Gaussian 16, Revision C.01,
 M. J. Frisch, G. W. Trucks, H. B. Schlegel, G. E. Scuseria, 
 M. A. Robb, J. R. Cheeseman, G. Scalmani, V. Barone, 
 G. A. Petersson, H. Nakatsuji, X. Li, M. Caricato, A. V. Marenich, 
 J. Bloino, B. G. Janesko, R. Gomperts, B. Mennucci, H. P. Hratchian, 
 J. V. Ortiz, A. F. Izmaylov, J. L. Sonnenberg, D. Williams-Young, 
 F. Ding, F. Lipparini, F. Egidi, J. Goings, B. Peng, A. Petrone, 
 T. Henderson, D. Ranasinghe, V. G. Zakrzewski, J. Gao, N. Rega, 
 G. Zheng, W. Liang, M. Hada, M. Ehara, K. Toyota, R. Fukuda, 
 J. Hasegawa, M. Ishida, T. Nakajima, Y. Honda, O. Kitao, H. Nakai, 
 T. Vreven, K. Throssell, J. A. Montgomery, Jr., J. E. Peralta, 
 F. Ogliaro, M. J. Bearpark, J. J. Heyd, E. N. Brothers, K. N. Kudin, 
 V. N. Staroverov, T. A. Keith, R. Kobayashi, J. Normand, 
 K. Raghavachari, A. P. Rendell, J. C. Burant, S. S. Iyengar, 
 J. Tomasi, M. Cossi, J. M. Millam, M. Klene, C. Adamo, R. Cammi, 
 J. W. Ochterski, R. L. Martin, K. Morokuma, O. Farkas, 
 J. B. Foresman, and D. J. Fox, Gaussian, Inc., Wallingford CT, 2019.
 
 ******************************************
 Gaussian 16:  ES64L-G16RevC.01  3-Jul-2019
                23-Feb-2021 
 ******************************************
 %chk=NJMWOUFKYKNWDW-UHFFFAOYSA-N.chk
 %NProcShared=32
 Will use up to   32 processors via shared memory.
 -------------------------------------------------------------
 #P BP86/TZVP EmpiricalDispersion=GD3 SCRF=(Solvent=Water) Opt
 -------------------------------------------------------------
 1/18=20,19=15,26=3,38=1/1,3;
 2/9=110,12=2,17=6,18=5,40=1/2;
 3/5=19,7=101,11=2,25=1,30=1,70=2201,71=1,72=1,74=404,124=31/1,2,3;
 4//1;
 5/5=2,38=5,53=1/2;
 6/7=2,8=2,9=2,10=2,28=1/1;
 7//1,2,3,16;
 1/18=20,19=15,26=3/3(2);
 2/9=110/2;
 99//99;
 2/9=110/2;
 3/5=19,7=101,11=2,25=1,30=1,70=2205,71=1,72=1,74=404,124=31/1,2,3;
 4/5=5,16=3,69=1/1;
 5/5=2,38=5,53=1/2;
 7//1,2,3,16;
 1/18=20,19=15,26=3/3(-5);
 2/9=110/2;
 6/7=2,8=2,9=2,10=2,19=2,28=1/1;
 99/9=1/99;
 Leave Link    1 at Tue Feb 23 01:59:19 2021, MaxMem=           0 cpu:               2.2 elap:               0.1
 (Enter /sw/arch/RedHatEnterpriseServer7/EB_production/2019/software/Gaussian/g16.c01/l101.exe)
 -------------------------------------
 Particle #NJMWOUFKYKNWDW-UHFFFAOYSA-N
 -------------------------------------
 Symbolic Z-matrix:
 Charge =  1 Multiplicity = 1
 C                     0.73748  -0.75001  -0.09546 
 C                     0.65546   0.66058   0.48408 
 N                     1.76233   1.51582  -0.00073 
 C                     3.0924    1.41573   0.38619 
 C                     3.7923    2.36104  -0.3287 
 N                     2.87801   3.01938  -1.14028 
 C                     3.18916   4.08484  -2.10532 
 C                     1.65319   2.48939  -0.92989 
 H                     0.68569  -0.72547  -1.19296 
 H                    -0.10783  -1.3428    0.28075 
 H                     1.66798  -1.25188   0.20474 
 H                    -0.27866   1.15993   0.19763 
 H                     0.71209   0.65406   1.58069 
 H                     3.42093   0.70209   1.13211 
 H                     4.84404   2.62136  -0.32461 
 H                     3.21263   3.66865  -3.11979 
 H                     4.16877   4.50264  -1.85373 
 H                     2.42911   4.87062  -2.03615 
 H                     0.73744   2.79695  -1.42147 
 
 ITRead=  0  0  0  0  0  0  0  0  0  0  0  0  0  0  0  0  0  0  0
 MicOpt= -1 -1 -1 -1 -1 -1 -1 -1 -1 -1 -1 -1 -1 -1 -1 -1 -1 -1 -1
 NAtoms=     19 NQM=       19 NQMF=       0 NMMI=      0 NMMIF=      0
                NMic=       0 NMicF=      0.
                    Isotopes and Nuclear Properties:
 (Nuclear quadrupole moments (NQMom) in fm**2, nuclear magnetic moments (NMagM)
  in nuclear magnetons)

  Atom         1           2           3           4           5           6           7           8           9          10
 IAtWgt=          12          12          14          12          12          14          12          12           1           1
 AtmWgt=  12.0000000  12.0000000  14.0030740  12.0000000  12.0000000  14.0030740  12.0000000  12.0000000   1.0078250   1.0078250
 NucSpn=           0           0           2           0           0           2           0           0           1           1
 AtZEff=  -0.0000000  -0.0000000  -0.0000000  -0.0000000  -0.0000000  -0.0000000  -0.0000000  -0.0000000  -0.0000000  -0.0000000
 NQMom=    0.0000000   0.0000000   2.0440000   0.0000000   0.0000000   2.0440000   0.0000000   0.0000000   0.0000000   0.0000000
 NMagM=    0.0000000   0.0000000   0.4037610   0.0000000   0.0000000   0.4037610   0.0000000   0.0000000   2.7928460   2.7928460
 AtZNuc=   6.0000000   6.0000000   7.0000000   6.0000000   6.0000000   7.0000000   6.0000000   6.0000000   1.0000000   1.0000000

  Atom        11          12          13          14          15          16          17          18          19
 IAtWgt=           1           1           1           1           1           1           1           1           1
 AtmWgt=   1.0078250   1.0078250   1.0078250   1.0078250   1.0078250   1.0078250   1.0078250   1.0078250   1.0078250
 NucSpn=           1           1           1           1           1           1           1           1           1
 AtZEff=  -0.0000000  -0.0000000  -0.0000000  -0.0000000  -0.0000000  -0.0000000  -0.0000000  -0.0000000  -0.0000000
 NQMom=    0.0000000   0.0000000   0.0000000   0.0000000   0.0000000   0.0000000   0.0000000   0.0000000   0.0000000
 NMagM=    2.7928460   2.7928460   2.7928460   2.7928460   2.7928460   2.7928460   2.7928460   2.7928460   2.7928460
 AtZNuc=   1.0000000   1.0000000   1.0000000   1.0000000   1.0000000   1.0000000   1.0000000   1.0000000   1.0000000
 Leave Link  101 at Tue Feb 23 01:59:19 2021, MaxMem=   104857600 cpu:               2.6 elap:               0.1
 (Enter /sw/arch/RedHatEnterpriseServer7/EB_production/2019/software/Gaussian/g16.c01/l103.exe)

 GradGradGradGradGradGradGradGradGradGradGradGradGradGradGradGradGradGrad
 Berny optimization.
 Initialization pass.
                           ----------------------------
                           !    Initial Parameters    !
                           ! (Angstroms and Degrees)  !
 --------------------------                            --------------------------
 ! Name  Definition              Value          Derivative Info.                !
 --------------------------------------------------------------------------------
 ! R1    R(1,2)                  1.5272         estimate D2E/DX2                !
 ! R2    R(1,9)                  1.099          estimate D2E/DX2                !
 ! R3    R(1,10)                 1.0988         estimate D2E/DX2                !
 ! R4    R(1,11)                 1.099          estimate D2E/DX2                !
 ! R5    R(2,3)                  1.4804         estimate D2E/DX2                !
 ! R6    R(2,12)                 1.0973         estimate D2E/DX2                !
 ! R7    R(2,13)                 1.0981         estimate D2E/DX2                !
 ! R8    R(3,4)                  1.3888         estimate D2E/DX2                !
 ! R9    R(3,8)                  1.3502         estimate D2E/DX2                !
 ! R10   R(4,5)                  1.3764         estimate D2E/DX2                !
 ! R11   R(4,14)                 1.0833         estimate D2E/DX2                !
 ! R12   R(5,6)                  1.3885         estimate D2E/DX2                !
 ! R13   R(5,15)                 1.0835         estimate D2E/DX2                !
 ! R14   R(6,7)                  1.4708         estimate D2E/DX2                !
 ! R15   R(6,8)                  1.351          estimate D2E/DX2                !
 ! R16   R(7,16)                 1.0968         estimate D2E/DX2                !
 ! R17   R(7,17)                 1.0943         estimate D2E/DX2                !
 ! R18   R(7,18)                 1.0954         estimate D2E/DX2                !
 ! R19   R(8,19)                 1.0839         estimate D2E/DX2                !
 ! A1    A(2,1,9)              110.8428         estimate D2E/DX2                !
 ! A2    A(2,1,10)             109.0886         estimate D2E/DX2                !
 ! A3    A(2,1,11)             111.3216         estimate D2E/DX2                !
 ! A4    A(9,1,10)             108.5233         estimate D2E/DX2                !
 ! A5    A(9,1,11)             108.8373         estimate D2E/DX2                !
 ! A6    A(10,1,11)            108.1467         estimate D2E/DX2                !
 ! A7    A(1,2,3)              111.6637         estimate D2E/DX2                !
 ! A8    A(1,2,12)             111.5301         estimate D2E/DX2                !
 ! A9    A(1,2,13)             111.7593         estimate D2E/DX2                !
 ! A10   A(3,2,12)             106.7451         estimate D2E/DX2                !
 ! A11   A(3,2,13)             106.9722         estimate D2E/DX2                !
 ! A12   A(12,2,13)            107.8982         estimate D2E/DX2                !
 ! A13   A(2,3,4)              125.6747         estimate D2E/DX2                !
 ! A14   A(2,3,8)              125.5544         estimate D2E/DX2                !
 ! A15   A(4,3,8)              108.7287         estimate D2E/DX2                !
 ! A16   A(3,4,5)              107.0254         estimate D2E/DX2                !
 ! A17   A(3,4,14)             121.9869         estimate D2E/DX2                !
 ! A18   A(5,4,14)             130.9826         estimate D2E/DX2                !
 ! A19   A(4,5,6)              107.1201         estimate D2E/DX2                !
 ! A20   A(4,5,15)             131.0446         estimate D2E/DX2                !
 ! A21   A(6,5,15)             121.8338         estimate D2E/DX2                !
 ! A22   A(5,6,7)              125.9913         estimate D2E/DX2                !
 ! A23   A(5,6,8)              108.6586         estimate D2E/DX2                !
 ! A24   A(7,6,8)              125.3185         estimate D2E/DX2                !
 ! A25   A(6,7,16)             109.6654         estimate D2E/DX2                !
 ! A26   A(6,7,17)             108.3666         estimate D2E/DX2                !
 ! A27   A(6,7,18)             109.3552         estimate D2E/DX2                !
 ! A28   A(16,7,17)            109.7777         estimate D2E/DX2                !
 ! A29   A(16,7,18)            110.2106         estimate D2E/DX2                !
 ! A30   A(17,7,18)            109.4352         estimate D2E/DX2                !
 ! A31   A(3,8,6)              108.4659         estimate D2E/DX2                !
 ! A32   A(3,8,19)             125.8017         estimate D2E/DX2                !
 ! A33   A(6,8,19)             125.7319         estimate D2E/DX2                !
 ! D1    D(9,1,2,3)            -59.8647         estimate D2E/DX2                !
 ! D2    D(9,1,2,12)            59.474          estimate D2E/DX2                !
 ! D3    D(9,1,2,13)          -179.6491         estimate D2E/DX2                !
 ! D4    D(10,1,2,3)          -179.3018         estimate D2E/DX2                !
 ! D5    D(10,1,2,12)          -59.963          estimate D2E/DX2                !
 ! D6    D(10,1,2,13)           60.9138         estimate D2E/DX2                !
 ! D7    D(11,1,2,3)            61.4324         estimate D2E/DX2                !
 ! D8    D(11,1,2,12)         -179.2288         estimate D2E/DX2                !
 ! D9    D(11,1,2,13)          -58.3519         estimate D2E/DX2                !
 ! D10   D(1,2,3,4)            -72.457          estimate D2E/DX2                !
 ! D11   D(1,2,3,8)            104.909          estimate D2E/DX2                !
 ! D12   D(12,2,3,4)           165.4106         estimate D2E/DX2                !
 ! D13   D(12,2,3,8)           -17.2234         estimate D2E/DX2                !
 ! D14   D(13,2,3,4)            50.1094         estimate D2E/DX2                !
 ! D15   D(13,2,3,8)          -132.5246         estimate D2E/DX2                !
 ! D16   D(2,3,4,5)            178.0285         estimate D2E/DX2                !
 ! D17   D(2,3,4,14)            -2.7093         estimate D2E/DX2                !
 ! D18   D(8,3,4,5)              0.2911         estimate D2E/DX2                !
 ! D19   D(8,3,4,14)           179.5533         estimate D2E/DX2                !
 ! D20   D(2,3,8,6)           -178.1186         estimate D2E/DX2                !
 ! D21   D(2,3,8,19)             2.1028         estimate D2E/DX2                !
 ! D22   D(4,3,8,6)             -0.3778         estimate D2E/DX2                !
 ! D23   D(4,3,8,19)           179.8437         estimate D2E/DX2                !
 ! D24   D(3,4,5,6)             -0.0948         estimate D2E/DX2                !
 ! D25   D(3,4,5,15)           179.4625         estimate D2E/DX2                !
 ! D26   D(14,4,5,6)          -179.2659         estimate D2E/DX2                !
 ! D27   D(14,4,5,15)            0.2914         estimate D2E/DX2                !
 ! D28   D(4,5,6,7)           -178.1701         estimate D2E/DX2                !
 ! D29   D(4,5,6,8)             -0.1339         estimate D2E/DX2                !
 ! D30   D(15,5,6,7)             2.2229         estimate D2E/DX2                !
 ! D31   D(15,5,6,8)          -179.741          estimate D2E/DX2                !
 ! D32   D(5,6,7,16)           101.266          estimate D2E/DX2                !
 ! D33   D(5,6,7,17)           -18.5534         estimate D2E/DX2                !
 ! D34   D(5,6,7,18)          -137.7777         estimate D2E/DX2                !
 ! D35   D(8,6,7,16)           -76.4535         estimate D2E/DX2                !
 ! D36   D(8,6,7,17)           163.7271         estimate D2E/DX2                !
 ! D37   D(8,6,7,18)            44.5028         estimate D2E/DX2                !
 ! D38   D(5,6,8,3)              0.3174         estimate D2E/DX2                !
 ! D39   D(5,6,8,19)          -179.9038         estimate D2E/DX2                !
 ! D40   D(7,6,8,3)            178.37           estimate D2E/DX2                !
 ! D41   D(7,6,8,19)            -1.8512         estimate D2E/DX2                !
 --------------------------------------------------------------------------------
 Trust Radius=3.00D-01 FncErr=1.00D-07 GrdErr=1.00D-06 EigMax=2.50D+02 EigMin=1.00D-04
 Number of steps in this run=    103 maximum allowed number of steps=    114.
 GradGradGradGradGradGradGradGradGradGradGradGradGradGradGradGradGradGrad

 Leave Link  103 at Tue Feb 23 01:59:19 2021, MaxMem=   104857600 cpu:               0.7 elap:               0.1
 (Enter /sw/arch/RedHatEnterpriseServer7/EB_production/2019/software/Gaussian/g16.c01/l202.exe)
                          Input orientation:                          
 ---------------------------------------------------------------------
 Center     Atomic      Atomic             Coordinates (Angstroms)
 Number     Number       Type             X           Y           Z
 ---------------------------------------------------------------------
      1          6           0        0.737479   -0.750012   -0.095460
      2          6           0        0.655455    0.660579    0.484081
      3          7           0        1.762327    1.515815   -0.000730
      4          6           0        3.092397    1.415732    0.386190
      5          6           0        3.792300    2.361042   -0.328695
      6          7           0        2.878010    3.019384   -1.140277
      7          6           0        3.189156    4.084841   -2.105321
      8          6           0        1.653194    2.489387   -0.929893
      9          1           0        0.685686   -0.725472   -1.192958
     10          1           0       -0.107829   -1.342796    0.280747
     11          1           0        1.667975   -1.251878    0.204738
     12          1           0       -0.278664    1.159926    0.197625
     13          1           0        0.712094    0.654055    1.580693
     14          1           0        3.420925    0.702085    1.132106
     15          1           0        4.844036    2.621361   -0.324608
     16          1           0        3.212633    3.668646   -3.119789
     17          1           0        4.168770    4.502638   -1.853734
     18          1           0        2.429109    4.870616   -2.036149
     19          1           0        0.737438    2.796952   -1.421466
 ---------------------------------------------------------------------
                    Distance matrix (angstroms):
                    1          2          3          4          5
     1  C    0.000000
     2  C    1.527207   0.000000
     3  N    2.488626   1.480417   0.000000
     4  C    3.235440   2.553140   1.388816   0.000000
     5  C    4.366347   3.659505   2.223232   1.376421   0.000000
     6  N    4.458908   3.625224   2.191811   2.224357   1.388526
     7  C    5.781528   4.984999   3.614559   3.652551   2.547875
     8  C    3.468215   2.517805   1.350221   2.226233   2.225688
     9  H    1.098993   2.175893   2.757523   3.587579   4.463695
    10  H    1.098849   2.153476   3.427589   4.226351   5.413025
    11  H    1.099005   2.181908   2.776913   3.029529   4.224985
    12  H    2.183188   1.097261   2.081261   3.386007   4.276966
    13  H    2.186673   1.098093   2.084831   2.769988   4.005900
    14  H    3.288828   2.840684   2.167123   1.083334   2.241428
    15  H    5.318127   4.694982   3.289994   2.242100   1.083481
    16  H    5.898940   5.345606   4.057906   4.169169   3.136247
    17  H    6.515798   5.707029   4.259777   3.962932   2.655919
    18  H    6.182180   5.217453   3.980228   4.271288   3.327409
    19  H    3.786720   2.863899   2.170300   3.274328   3.273583
                    6          7          8          9         10
     6  N    0.000000
     7  C    1.470823   0.000000
     8  C    1.351049   2.507246   0.000000
     9  H    4.339701   5.498989   3.367580   0.000000
    10  H    5.473861   6.784001   4.387765   1.783973   0.000000
    11  H    4.638634   6.010901   3.909561   1.787610   1.779754
    12  H    3.900276   5.087678   2.602084   2.533460   2.509923
    13  H    4.205907   5.611847   3.249178   3.097892   2.519831
    14  H    3.290647   4.688037   3.251332   3.863337   4.166348
    15  H    2.165409   2.837488   3.250425   5.408068   6.371967
    16  H    2.109972   1.096775   2.935668   5.422768   6.906784
    17  H    2.091680   1.094301   3.351833   6.316774   7.550788
    18  H    2.105032   1.095399   2.737900   5.921714   7.100039
    19  H    2.170390   2.852584   1.083905   3.530208   4.555164
                   11         12         13         14         15
    11  H    0.000000
    12  H    3.099396   0.000000
    13  H    2.537625   1.774932   0.000000
    14  H    2.784029   3.843154   2.746143   0.000000
    15  H    5.036820   5.352623   4.957157   2.798371   0.000000
    16  H    6.135960   5.430292   6.118414   5.188688   3.401664
    17  H    6.603464   5.929710   6.209307   4.890676   2.516627
    18  H    6.563980   5.107935   5.814557   5.328995   3.717579
    19  H    4.461330   2.516699   3.688578   4.255620   4.254183
                   16         17         18         19
    16  H    0.000000
    17  H    1.792383   0.000000
    18  H    1.798032   1.787485   0.000000
    19  H    3.125819   3.856198   2.745846   0.000000
 Stoichiometry    C6H11N2(1+)
 Framework group  C1[X(C6H11N2)]
 Deg. of freedom    51
 Full point group                 C1      NOp   1
 Largest Abelian subgroup         C1      NOp   1
 Largest concise Abelian subgroup C1      NOp   1
                         Standard orientation:                         
 ---------------------------------------------------------------------
 Center     Atomic      Atomic             Coordinates (Angstroms)
 Number     Number       Type             X           Y           Z
 ---------------------------------------------------------------------
      1          6           0       -2.872953   -0.245474    0.715705
      2          6           0       -2.038425   -0.377153   -0.556531
      3          7           0       -0.629556    0.016582   -0.329165
      4          6           0       -0.171285    1.314241   -0.142404
      5          6           0        1.185027    1.234834    0.078156
      6          7           0        1.529912   -0.109100    0.024301
      7          6           0        2.873753   -0.665981    0.241778
      8          6           0        0.414895   -0.832052   -0.219441
      9          1           0       -2.471435   -0.884469    1.514614
     10          1           0       -3.904376   -0.559139    0.502981
     11          1           0       -2.897799    0.794046    1.071501
     12          1           0       -2.022503   -1.411491   -0.922418
     13          1           0       -2.423184    0.260404   -1.363557
     14          1           0       -0.833988    2.169739   -0.193002
     15          1           0        1.922785    2.007347    0.259452
     16          1           0        2.941483   -1.081949    1.254348
     17          1           0        3.604366    0.139980    0.122928
     18          1           0        3.067962   -1.446562   -0.501778
     19          1           0        0.368118   -1.910757   -0.314604
 ---------------------------------------------------------------------
 Rotational constants (GHZ):           5.2476434           1.2543048           1.1076530
 Leave Link  202 at Tue Feb 23 01:59:19 2021, MaxMem=   104857600 cpu:               0.9 elap:               0.1
 (Enter /sw/arch/RedHatEnterpriseServer7/EB_production/2019/software/Gaussian/g16.c01/l301.exe)
 Standard basis: TZVP (5D, 7F)
 Ernie: Thresh=  0.10000D-02 Tol=  0.10000D-05 Strict=F.
 There are   226 symmetry adapted cartesian basis functions of A   symmetry.
 There are   218 symmetry adapted basis functions of A   symmetry.
   218 basis functions,   368 primitive gaussians,   226 cartesian basis functions
    30 alpha electrons       30 beta electrons
       nuclear repulsion energy       378.6654326924 Hartrees.
 IExCor=  404 DFT=T Ex=B Corr=P86 ExCW=0 ScaHFX=  0.000000
 ScaDFX=  1.000000  1.000000  1.000000  1.000000 ScalE2=  1.000000  1.000000
 IRadAn=      5 IRanWt=     -1 IRanGd=            0 ICorTp=0 IEmpDi=131
 NAtoms=   19 NActive=   19 NUniq=   19 SFac= 1.00D+00 NAtFMM=   60 NAOKFM=F Big=F
 Integral buffers will be    131072 words long.
 Raffenetti 2 integral format.
 Two-electron integral symmetry is turned on.
 R6Disp:  Grimme-D3 Dispersion energy=       -0.0140048751 Hartrees.
 Nuclear repulsion after empirical dispersion term =      378.6514278173 Hartrees.
 ------------------------------------------------------------------------------
 Polarizable Continuum Model (PCM)
 =================================
 Model                : PCM.
 Atomic radii         : UFF (Universal Force Field).
 Polarization charges : Total charges.
 Charge compensation  : None.
 Solution method      : On-the-fly selection.
 Cavity type          : Scaled VdW (van der Waals Surface) (Alpha=1.100).
 Cavity algorithm     : GePol (No added spheres)
                        Default sphere list used, NSphG=   19.
                        Lebedev-Laikov grids with approx.  5.0 points / Ang**2.
                        Smoothing algorithm: York/Karplus (Gamma=1.0000).
                        Polarization charges: spherical gaussians, with
                                              point-specific exponents (IZeta= 3).
                        Self-potential: point-specific (ISelfS= 7).
                        Self-field    : sphere-specific E.n sum rule (ISelfD= 2).
 1st derivatives      : Analytical E(r).r(x)/FMM algorithm (CHGder, D1EAlg=3).
                        Cavity 1st derivative terms included.
 Solvent              : Water, Eps=  78.355300 Eps(inf)=   1.777849
 ------------------------------------------------------------------------------
 Spheres list:
 ISph  on   Nord     Re0    Alpha      Xe            Ye            Ze
    1   C      1    1.9255  1.100     -2.872953     -0.245474      0.715705
    2   C      2    1.9255  1.100     -2.038425     -0.377153     -0.556531
    3   N      3    1.8300  1.100     -0.629556      0.016582     -0.329165
    4   C      4    1.9255  1.100     -0.171285      1.314241     -0.142404
    5   C      5    1.9255  1.100      1.185027      1.234834      0.078156
    6   N      6    1.8300  1.100      1.529912     -0.109100      0.024301
    7   C      7    1.9255  1.100      2.873753     -0.665981      0.241778
    8   C      8    1.9255  1.100      0.414895     -0.832052     -0.219441
    9   H      9    1.4430  1.100     -2.471435     -0.884469      1.514614
   10   H     10    1.4430  1.100     -3.904376     -0.559139      0.502981
   11   H     11    1.4430  1.100     -2.897799      0.794046      1.071501
   12   H     12    1.4430  1.100     -2.022503     -1.411491     -0.922418
   13   H     13    1.4430  1.100     -2.423184      0.260404     -1.363557
   14   H     14    1.4430  1.100     -0.833988      2.169739     -0.193002
   15   H     15    1.4430  1.100      1.922785      2.007347      0.259452
   16   H     16    1.4430  1.100      2.941483     -1.081949      1.254348
   17   H     17    1.4430  1.100      3.604366      0.139980      0.122928
   18   H     18    1.4430  1.100      3.067962     -1.446562     -0.501778
   19   H     19    1.4430  1.100      0.368118     -1.910757     -0.314604
 ------------------------------------------------------------------------------
 GePol: Number of generator spheres                  =      19
 GePol: Total number of spheres                      =      19
 GePol: Number of exposed spheres                    =      19 (100.00%)
 GePol: Number of points                             =    1498
 GePol: Average weight of points                     =       0.13
 GePol: Minimum weight of points                     =   0.36D-10
 GePol: Maximum weight of points                     =    0.20577
 GePol: Number of points with low weight             =      91
 GePol: Fraction of low-weight points (<1% of avg)   =       6.07%
 GePol: Cavity surface area                          =    197.106 Ang**2
 GePol: Cavity volume                                =    189.401 Ang**3
 Leave Link  301 at Tue Feb 23 01:59:20 2021, MaxMem=   104857600 cpu:               2.0 elap:               0.1
 (Enter /sw/arch/RedHatEnterpriseServer7/EB_production/2019/software/Gaussian/g16.c01/l302.exe)
 NPDir=0 NMtPBC=     1 NCelOv=     1 NCel=       1 NClECP=     1 NCelD=      1
         NCelK=      1 NCelE2=     1 NClLst=     1 CellRange=     0.0.
 One-electron integrals computed using PRISM.
 One-electron integral symmetry used in STVInt
 PrsmSu:  requested number of processors reduced to:  29 ShMem   1 Linda.
 NBasis=   218 RedAO= T EigKep=  1.57D-04  NBF=   218
 NBsUse=   218 1.00D-06 EigRej= -1.00D+00 NBFU=   218
 Precomputing XC quadrature grid using
 IXCGrd= 4 IRadAn=           5 IRanWt=          -1 IRanGd=           0 AccXCQ= 0.00D+00.
 Generated NRdTot=       0 NPtTot=           0 NUsed=           0 NTot=          32
 NSgBfM=   225   225   225   225   225 MxSgAt=    19 MxSgA2=    19.
 Leave Link  302 at Tue Feb 23 01:59:20 2021, MaxMem=   104857600 cpu:               9.5 elap:               0.4
 (Enter /sw/arch/RedHatEnterpriseServer7/EB_production/2019/software/Gaussian/g16.c01/l303.exe)
 DipDrv:  MaxL=1.
 Leave Link  303 at Tue Feb 23 01:59:20 2021, MaxMem=   104857600 cpu:               2.3 elap:               0.1
 (Enter /sw/arch/RedHatEnterpriseServer7/EB_production/2019/software/Gaussian/g16.c01/l401.exe)
 ExpMin= 9.52D-02 ExpMax= 1.97D+04 ExpMxC= 6.73D+02 IAcc=3 IRadAn=         5 AccDes= 0.00D+00
 Harris functional with IExCor=  404 and IRadAn=       5 diagonalized for initial guess.
 HarFok:  IExCor=  404 AccDes= 0.00D+00 IRadAn=         5 IDoV= 1 UseB2=F ITyADJ=14
 ICtDFT=  3500011 ScaDFX=  1.000000  1.000000  1.000000  1.000000
 FoFCou: FMM=F IPFlag=           0 FMFlag=      100000 FMFlg1=           0
         NFxFlg=           0 DoJE=T BraDBF=F KetDBF=T FulRan=T
         wScrn=  0.000000 ICntrl=       500 IOpCl=  0 I1Cent=   200000004 NGrid=           0
         NMat0=    1 NMatS0=      1 NMatT0=    0 NMatD0=    1 NMtDS0=    0 NMtDT0=    0
 Petite list used in FoFCou.
 Harris En= -344.802241452368    
 JPrj=0 DoOrth=F DoCkMO=F.
 Leave Link  401 at Tue Feb 23 01:59:21 2021, MaxMem=   104857600 cpu:              13.4 elap:               0.5
 (Enter /sw/arch/RedHatEnterpriseServer7/EB_production/2019/software/Gaussian/g16.c01/l502.exe)
 Integral symmetry usage will be decided dynamically.
 Closed shell SCF:
 Using DIIS extrapolation, IDIIS=  1040.
 NGot=   104857600 LenX=   104745334 LenY=   104693817
 Requested convergence on RMS density matrix=1.00D-08 within 128 cycles.
 Requested convergence on MAX density matrix=1.00D-06.
 Requested convergence on             energy=1.00D-06.
 No special actions if energy rises.
 Fock matrices will be formed incrementally for  20 cycles.

 Cycle   1  Pass 1  IDiag  1:
 FoFJK:  IHMeth= 1 ICntrl=     500 DoSepK=F KAlg= 0 I1Cent=           0 FoldK=F
 IRaf= 930000000 NMat=       1 IRICut=       1 DoRegI=T DoRafI=F ISym2E= 0 IDoP0=0 IntGTp=1.
 FoFCou: FMM=F IPFlag=           0 FMFlag=      100000 FMFlg1=           0
         NFxFlg=           0 DoJE=T BraDBF=F KetDBF=F FulRan=T
         wScrn=  0.000000 ICntrl=       500 IOpCl=  0 I1Cent=           0 NGrid=           0
         NMat0=    1 NMatS0=      1 NMatT0=    0 NMatD0=    1 NMtDS0=    0 NMtDT0=    0
 Symmetry not used in FoFCou.
 Inv3:  Mode=1 IEnd=     6732012.
 Iteration    1 A*A^-1 deviation from unit magnitude is 3.33D-15 for    602.
 Iteration    1 A*A^-1 deviation from orthogonality  is 3.94D-15 for    920    217.
 Iteration    1 A^-1*A deviation from unit magnitude is 3.33D-15 for    602.
 Iteration    1 A^-1*A deviation from orthogonality  is 2.50D-15 for   1116    341.
 E= -344.604208380197    
 DIIS: error= 2.82D-02 at cycle   1 NSaved=   1.
 NSaved= 1 IEnMin= 1 EnMin= -344.604208380197     IErMin= 1 ErrMin= 2.82D-02
 ErrMax= 2.82D-02  0.00D+00 EMaxC= 1.00D-01 BMatC= 1.43D-01 BMatP= 1.43D-01
 IDIUse=3 WtCom= 7.18D-01 WtEn= 2.82D-01
 Coeff-Com:  0.100D+01
 Coeff-En:   0.100D+01
 Coeff:      0.100D+01
 Gap=     0.145 Goal=   None    Shift=    0.000
 GapD=    0.145 DampG=1.000 DampE=0.500 DampFc=0.5000 IDamp=-1.
 Damping current iteration by 5.00D-01
 RMSDP=2.92D-03 MaxDP=7.51D-02              OVMax= 1.93D-01

 Cycle   2  Pass 1  IDiag  1:
 RMSU=  1.45D-03    CP:  9.86D-01
 E= -344.646250915943     Delta-E=       -0.042042535747 Rises=F Damp=T
 DIIS: error= 5.95D-03 at cycle   2 NSaved=   2.
 NSaved= 2 IEnMin= 2 EnMin= -344.646250915943     IErMin= 2 ErrMin= 5.95D-03
 ErrMax= 5.95D-03  0.00D+00 EMaxC= 1.00D-01 BMatC= 1.74D-02 BMatP= 1.43D-01
 IDIUse=3 WtCom= 9.40D-01 WtEn= 5.95D-02
 Coeff-Com:  0.177D+00 0.823D+00
 Coeff-En:   0.316D+00 0.684D+00
 Coeff:      0.185D+00 0.815D+00
 Gap=     0.189 Goal=   None    Shift=    0.000
 RMSDP=8.13D-04 MaxDP=2.26D-02 DE=-4.20D-02 OVMax= 1.71D-01

 Cycle   3  Pass 1  IDiag  1:
 RMSU=  7.26D-04    CP:  9.88D-01  7.48D-01
 E= -344.728609015371     Delta-E=       -0.082358099428 Rises=F Damp=F
 DIIS: error= 6.42D-03 at cycle   3 NSaved=   3.
 NSaved= 3 IEnMin= 3 EnMin= -344.728609015371     IErMin= 2 ErrMin= 5.95D-03
 ErrMax= 6.42D-03  0.00D+00 EMaxC= 1.00D-01 BMatC= 9.37D-03 BMatP= 1.74D-02
 IDIUse=3 WtCom= 9.36D-01 WtEn= 6.42D-02
 Coeff-Com:  0.345D-01 0.414D+00 0.551D+00
 Coeff-En:   0.000D+00 0.000D+00 0.100D+01
 Coeff:      0.323D-01 0.388D+00 0.580D+00
 Gap=     0.177 Goal=   None    Shift=    0.000
 RMSDP=5.41D-04 MaxDP=1.95D-02 DE=-8.24D-02 OVMax= 6.86D-02

 Cycle   4  Pass 1  IDiag  1:
 RMSU=  3.49D-04    CP:  9.91D-01  8.64D-01  4.83D-01
 E= -344.734423462526     Delta-E=       -0.005814447155 Rises=F Damp=F
 DIIS: error= 4.58D-03 at cycle   4 NSaved=   4.
 NSaved= 4 IEnMin= 4 EnMin= -344.734423462526     IErMin= 4 ErrMin= 4.58D-03
 ErrMax= 4.58D-03  0.00D+00 EMaxC= 1.00D-01 BMatC= 3.27D-03 BMatP= 9.37D-03
 IDIUse=3 WtCom= 9.54D-01 WtEn= 4.58D-02
 Coeff-Com: -0.353D-02 0.126D+00 0.384D+00 0.493D+00
 Coeff-En:   0.000D+00 0.000D+00 0.308D+00 0.692D+00
 Coeff:     -0.337D-02 0.120D+00 0.381D+00 0.502D+00
 Gap=     0.183 Goal=   None    Shift=    0.000
 RMSDP=2.44D-04 MaxDP=9.03D-03 DE=-5.81D-03 OVMax= 3.43D-02

 Cycle   5  Pass 1  IDiag  1:
 RMSU=  9.46D-05    CP:  9.90D-01  8.21D-01  6.53D-01  4.95D-01
 E= -344.737737570061     Delta-E=       -0.003314107535 Rises=F Damp=F
 DIIS: error= 1.04D-03 at cycle   5 NSaved=   5.
 NSaved= 5 IEnMin= 5 EnMin= -344.737737570061     IErMin= 5 ErrMin= 1.04D-03
 ErrMax= 1.04D-03  0.00D+00 EMaxC= 1.00D-01 BMatC= 1.70D-04 BMatP= 3.27D-03
 IDIUse=3 WtCom= 9.90D-01 WtEn= 1.04D-02
 Coeff-Com: -0.418D-02 0.405D-01 0.174D+00 0.288D+00 0.502D+00
 Coeff-En:   0.000D+00 0.000D+00 0.000D+00 0.000D+00 0.100D+01
 Coeff:     -0.413D-02 0.401D-01 0.172D+00 0.285D+00 0.507D+00
 Gap=     0.182 Goal=   None    Shift=    0.000
 RMSDP=5.66D-05 MaxDP=1.68D-03 DE=-3.31D-03 OVMax= 7.07D-03

 Cycle   6  Pass 1  IDiag  1:
 RMSU=  3.49D-05    CP:  9.90D-01  8.26D-01  6.31D-01  5.44D-01  6.07D-01
 E= -344.737883356158     Delta-E=       -0.000145786097 Rises=F Damp=F
 DIIS: error= 3.16D-04 at cycle   6 NSaved=   6.
 NSaved= 6 IEnMin= 6 EnMin= -344.737883356158     IErMin= 6 ErrMin= 3.16D-04
 ErrMax= 3.16D-04  0.00D+00 EMaxC= 1.00D-01 BMatC= 2.59D-05 BMatP= 1.70D-04
 IDIUse=3 WtCom= 9.97D-01 WtEn= 3.16D-03
 Coeff-Com: -0.233D-02 0.146D-01 0.724D-01 0.136D+00 0.336D+00 0.443D+00
 Coeff-En:   0.000D+00 0.000D+00 0.000D+00 0.000D+00 0.912D-01 0.909D+00
 Coeff:     -0.233D-02 0.145D-01 0.721D-01 0.136D+00 0.335D+00 0.445D+00
 Gap=     0.182 Goal=   None    Shift=    0.000
 RMSDP=1.90D-05 MaxDP=7.98D-04 DE=-1.46D-04 OVMax= 1.89D-03

 Cycle   7  Pass 1  IDiag  1:
 RMSU=  1.10D-05    CP:  9.90D-01  8.26D-01  6.39D-01  5.48D-01  6.29D-01
                    CP:  5.93D-01
 E= -344.737903983226     Delta-E=       -0.000020627069 Rises=F Damp=F
 DIIS: error= 1.10D-04 at cycle   7 NSaved=   7.
 NSaved= 7 IEnMin= 7 EnMin= -344.737903983226     IErMin= 7 ErrMin= 1.10D-04
 ErrMax= 1.10D-04  0.00D+00 EMaxC= 1.00D-01 BMatC= 2.80D-06 BMatP= 2.59D-05
 IDIUse=3 WtCom= 9.99D-01 WtEn= 1.10D-03
 Coeff-Com: -0.119D-02 0.604D-02 0.323D-01 0.648D-01 0.181D+00 0.298D+00
 Coeff-Com:  0.419D+00
 Coeff-En:   0.000D+00 0.000D+00 0.000D+00 0.000D+00 0.000D+00 0.476D-01
 Coeff-En:   0.952D+00
 Coeff:     -0.119D-02 0.604D-02 0.323D-01 0.647D-01 0.181D+00 0.298D+00
 Coeff:      0.420D+00
 Gap=     0.182 Goal=   None    Shift=    0.000
 RMSDP=6.66D-06 MaxDP=1.99D-04 DE=-2.06D-05 OVMax= 7.13D-04

 Cycle   8  Pass 1  IDiag  1:
 RMSU=  3.90D-06    CP:  9.90D-01  8.27D-01  6.40D-01  5.50D-01  6.41D-01
                    CP:  5.97D-01  5.38D-01
 E= -344.737906426643     Delta-E=       -0.000002443417 Rises=F Damp=F
 DIIS: error= 3.97D-05 at cycle   8 NSaved=   8.
 NSaved= 8 IEnMin= 8 EnMin= -344.737906426643     IErMin= 8 ErrMin= 3.97D-05
 ErrMax= 3.97D-05  0.00D+00 EMaxC= 1.00D-01 BMatC= 1.89D-07 BMatP= 2.80D-06
 IDIUse=1 WtCom= 1.00D+00 WtEn= 0.00D+00
 Coeff-Com: -0.473D-03 0.213D-02 0.119D-01 0.246D-01 0.725D-01 0.127D+00
 Coeff-Com:  0.249D+00 0.514D+00
 Coeff:     -0.473D-03 0.213D-02 0.119D-01 0.246D-01 0.725D-01 0.127D+00
 Coeff:      0.249D+00 0.514D+00
 Gap=     0.182 Goal=   None    Shift=    0.000
 RMSDP=1.96D-06 MaxDP=8.27D-05 DE=-2.44D-06 OVMax= 2.02D-04

 Cycle   9  Pass 1  IDiag  1:
 RMSU=  1.34D-06    CP:  9.90D-01  8.27D-01  6.39D-01  5.50D-01  6.45D-01
                    CP:  5.96D-01  5.91D-01  7.05D-01
 E= -344.737906517108     Delta-E=       -0.000000090465 Rises=F Damp=F
 DIIS: error= 2.04D-05 at cycle   9 NSaved=   9.
 NSaved= 9 IEnMin= 9 EnMin= -344.737906517108     IErMin= 9 ErrMin= 2.04D-05
 ErrMax= 2.04D-05  0.00D+00 EMaxC= 1.00D-01 BMatC= 5.42D-08 BMatP= 1.89D-07
 IDIUse=1 WtCom= 1.00D+00 WtEn= 0.00D+00
 Coeff-Com: -0.889D-04 0.296D-03 0.177D-02 0.406D-02 0.144D-01 0.290D-01
 Coeff-Com:  0.929D-01 0.372D+00 0.486D+00
 Coeff:     -0.889D-04 0.296D-03 0.177D-02 0.406D-02 0.144D-01 0.290D-01
 Coeff:      0.929D-01 0.372D+00 0.486D+00
 Gap=     0.182 Goal=   None    Shift=    0.000
 RMSDP=7.05D-07 MaxDP=3.08D-05 DE=-9.05D-08 OVMax= 8.09D-05

 Cycle  10  Pass 1  IDiag  1:
 RMSU=  4.62D-07    CP:  9.90D-01  8.27D-01  6.39D-01  5.50D-01  6.45D-01
                    CP:  5.99D-01  5.88D-01  7.50D-01  6.60D-01
 E= -344.737906581198     Delta-E=       -0.000000064091 Rises=F Damp=F
 DIIS: error= 1.47D-06 at cycle  10 NSaved=  10.
 NSaved=10 IEnMin=10 EnMin= -344.737906581198     IErMin=10 ErrMin= 1.47D-06
 ErrMax= 1.47D-06  0.00D+00 EMaxC= 1.00D-01 BMatC= 8.72D-10 BMatP= 5.42D-08
 IDIUse=1 WtCom= 1.00D+00 WtEn= 0.00D+00
 Coeff-Com: -0.685D-05-0.724D-05 0.148D-04 0.148D-03 0.120D-02 0.395D-02
 Coeff-Com:  0.209D-01 0.117D+00 0.200D+00 0.657D+00
 Coeff:     -0.685D-05-0.724D-05 0.148D-04 0.148D-03 0.120D-02 0.395D-02
 Coeff:      0.209D-01 0.117D+00 0.200D+00 0.657D+00
 Gap=     0.182 Goal=   None    Shift=    0.000
 RMSDP=1.56D-07 MaxDP=4.58D-06 DE=-6.41D-08 OVMax= 7.31D-06

 Cycle  11  Pass 1  IDiag  1:
 RMSU=  9.94D-08    CP:  9.90D-01  8.27D-01  6.39D-01  5.50D-01  6.45D-01
                    CP:  6.00D-01  5.90D-01  7.63D-01  6.71D-01  7.86D-01
 E= -344.737906581071     Delta-E=        0.000000000127 Rises=F Damp=F
 DIIS: error= 8.47D-07 at cycle  11 NSaved=  11.
 NSaved=11 IEnMin=10 EnMin= -344.737906581198     IErMin=11 ErrMin= 8.47D-07
 ErrMax= 8.47D-07  0.00D+00 EMaxC= 1.00D-01 BMatC= 1.16D-10 BMatP= 8.72D-10
 IDIUse=1 WtCom= 1.00D+00 WtEn= 0.00D+00
 Coeff-Com:  0.486D-06-0.191D-04-0.835D-04-0.134D-03-0.114D-03 0.646D-03
 Coeff-Com:  0.648D-02 0.437D-01 0.829D-01 0.360D+00 0.507D+00
 Coeff:      0.486D-06-0.191D-04-0.835D-04-0.134D-03-0.114D-03 0.646D-03
 Coeff:      0.648D-02 0.437D-01 0.829D-01 0.360D+00 0.507D+00
 Gap=     0.182 Goal=   None    Shift=    0.000
 RMSDP=3.82D-08 MaxDP=1.52D-06 DE= 1.27D-10 OVMax= 2.42D-06

 Cycle  12  Pass 1  IDiag  1:
 RMSU=  2.82D-08    CP:  9.90D-01  8.27D-01  6.39D-01  5.50D-01  6.45D-01
                    CP:  6.00D-01  5.91D-01  7.64D-01  6.73D-01  7.94D-01
                    CP:  7.71D-01
 E= -344.737906581177     Delta-E=       -0.000000000106 Rises=F Damp=F
 DIIS: error= 1.37D-07 at cycle  12 NSaved=  12.
 NSaved=12 IEnMin=10 EnMin= -344.737906581198     IErMin=12 ErrMin= 1.37D-07
 ErrMax= 1.37D-07  0.00D+00 EMaxC= 1.00D-01 BMatC= 3.73D-12 BMatP= 1.16D-10
 IDIUse=1 WtCom= 1.00D+00 WtEn= 0.00D+00
 Coeff-Com:  0.440D-06-0.533D-05-0.269D-04-0.546D-04-0.116D-03-0.196D-04
 Coeff-Com:  0.848D-03 0.758D-02 0.163D-01 0.896D-01 0.205D+00 0.681D+00
 Coeff:      0.440D-06-0.533D-05-0.269D-04-0.546D-04-0.116D-03-0.196D-04
 Coeff:      0.848D-03 0.758D-02 0.163D-01 0.896D-01 0.205D+00 0.681D+00
 Gap=     0.182 Goal=   None    Shift=    0.000
 RMSDP=1.07D-08 MaxDP=3.48D-07 DE=-1.06D-10 OVMax= 3.82D-07

 Cycle  13  Pass 1  IDiag  1:
 RMSU=  6.84D-09    CP:  9.90D-01  8.27D-01  6.39D-01  5.50D-01  6.45D-01
                    CP:  6.00D-01  5.91D-01  7.65D-01  6.75D-01  8.05D-01
                    CP:  7.65D-01  8.18D-01
 E= -344.737906581178     Delta-E=       -0.000000000001 Rises=F Damp=F
 DIIS: error= 1.60D-08 at cycle  13 NSaved=  13.
 NSaved=13 IEnMin=10 EnMin= -344.737906581198     IErMin=13 ErrMin= 1.60D-08
 ErrMax= 1.60D-08  0.00D+00 EMaxC= 1.00D-01 BMatC= 9.15D-14 BMatP= 3.73D-12
 IDIUse=1 WtCom= 1.00D+00 WtEn= 0.00D+00
 Coeff-Com:  0.298D-07-0.786D-06-0.482D-05-0.114D-04-0.261D-04-0.287D-04
 Coeff-Com:  0.273D-04 0.832D-03 0.225D-02 0.148D-01 0.440D-01 0.204D+00
 Coeff-Com:  0.734D+00
 Coeff:      0.298D-07-0.786D-06-0.482D-05-0.114D-04-0.261D-04-0.287D-04
 Coeff:      0.273D-04 0.832D-03 0.225D-02 0.148D-01 0.440D-01 0.204D+00
 Coeff:      0.734D+00
 Gap=     0.182 Goal=   None    Shift=    0.000
 RMSDP=1.97D-09 MaxDP=5.33D-08 DE=-1.25D-12 OVMax= 2.03D-07

 Error on total polarization charges =  0.00989
 SCF Done:  E(RB-P86) =  -344.737906581     A.U. after   13 cycles
            NFock= 13  Conv=0.20D-08     -V/T= 2.0054
 KE= 3.428878848036D+02 PE=-1.545627196012D+03 EE= 4.793499768101D+02
 Leave Link  502 at Tue Feb 23 01:59:32 2021, MaxMem=   104857600 cpu:             332.3 elap:              10.7
 (Enter /sw/arch/RedHatEnterpriseServer7/EB_production/2019/software/Gaussian/g16.c01/l601.exe)
 Copying SCF densities to generalized density rwf, IOpCl= 0 IROHF=0.

 **********************************************************************

            Population analysis using the SCF Density.

 **********************************************************************

 Orbital symmetries:
       Occupied  (A) (A) (A) (A) (A) (A) (A) (A) (A) (A) (A) (A)
                 (A) (A) (A) (A) (A) (A) (A) (A) (A) (A) (A) (A)
                 (A) (A) (A) (A) (A) (A)
       Virtual   (A) (A) (A) (A) (A) (A) (A) (A) (A) (A) (A) (A)
                 (A) (A) (A) (A) (A) (A) (A) (A) (A) (A) (A) (A)
                 (A) (A) (A) (A) (A) (A) (A) (A) (A) (A) (A) (A)
                 (A) (A) (A) (A) (A) (A) (A) (A) (A) (A) (A) (A)
                 (A) (A) (A) (A) (A) (A) (A) (A) (A) (A) (A) (A)
                 (A) (A) (A) (A) (A) (A) (A) (A) (A) (A) (A) (A)
                 (A) (A) (A) (A) (A) (A) (A) (A) (A) (A) (A) (A)
                 (A) (A) (A) (A) (A) (A) (A) (A) (A) (A) (A) (A)
                 (A) (A) (A) (A) (A) (A) (A) (A) (A) (A) (A) (A)
                 (A) (A) (A) (A) (A) (A) (A) (A) (A) (A) (A) (A)
                 (A) (A) (A) (A) (A) (A) (A) (A) (A) (A) (A) (A)
                 (A) (A) (A) (A) (A) (A) (A) (A) (A) (A) (A) (A)
                 (A) (A) (A) (A) (A) (A) (A) (A) (A) (A) (A) (A)
                 (A) (A) (A) (A) (A) (A) (A) (A) (A) (A) (A) (A)
                 (A) (A) (A) (A) (A) (A) (A) (A) (A) (A) (A) (A)
                 (A) (A) (A) (A) (A) (A) (A) (A)
 The electronic state is 1-A.
 Alpha  occ. eigenvalues --  -14.11797 -14.11574 -10.01297  -9.97267  -9.97144
 Alpha  occ. eigenvalues --   -9.96823  -9.96084  -9.90862  -1.00728  -0.89932
 Alpha  occ. eigenvalues --   -0.75680  -0.72854  -0.68558  -0.62293  -0.59548
 Alpha  occ. eigenvalues --   -0.57353  -0.52235  -0.47304  -0.45862  -0.45037
 Alpha  occ. eigenvalues --   -0.44251  -0.43041  -0.41575  -0.40712  -0.38374
 Alpha  occ. eigenvalues --   -0.36782  -0.35390  -0.33420  -0.29498  -0.26047
 Alpha virt. eigenvalues --   -0.07810  -0.04556   0.01926   0.02654   0.03537
 Alpha virt. eigenvalues --    0.04347   0.05400   0.06123   0.06606   0.07870
 Alpha virt. eigenvalues --    0.08290   0.08895   0.09307   0.10119   0.10717
 Alpha virt. eigenvalues --    0.11568   0.13451   0.15064   0.15787   0.15836
 Alpha virt. eigenvalues --    0.17692   0.18033   0.20317   0.20828   0.21514
 Alpha virt. eigenvalues --    0.22021   0.22483   0.24586   0.25703   0.26782
 Alpha virt. eigenvalues --    0.27803   0.29134   0.31841   0.33289   0.34919
 Alpha virt. eigenvalues --    0.35206   0.35865   0.37398   0.37565   0.37945
 Alpha virt. eigenvalues --    0.38992   0.39340   0.40519   0.41848   0.42247
 Alpha virt. eigenvalues --    0.42331   0.43257   0.45047   0.45924   0.47201
 Alpha virt. eigenvalues --    0.47858   0.49021   0.49402   0.50697   0.53510
 Alpha virt. eigenvalues --    0.55705   0.58364   0.60101   0.62083   0.65399
 Alpha virt. eigenvalues --    0.67019   0.68583   0.70303   0.84542   1.02076
 Alpha virt. eigenvalues --    1.10205   1.13464   1.13987   1.15500   1.16182
 Alpha virt. eigenvalues --    1.17832   1.19023   1.20036   1.20424   1.22107
 Alpha virt. eigenvalues --    1.23659   1.24933   1.25076   1.26900   1.27484
 Alpha virt. eigenvalues --    1.30008   1.31115   1.31696   1.32540   1.34393
 Alpha virt. eigenvalues --    1.34655   1.35782   1.38002   1.40556   1.42095
 Alpha virt. eigenvalues --    1.42622   1.46330   1.48964   1.49685   1.52419
 Alpha virt. eigenvalues --    1.53264   1.54584   1.58036   1.58580   1.60755
 Alpha virt. eigenvalues --    1.61560   1.63979   1.65747   1.66691   1.67564
 Alpha virt. eigenvalues --    1.68897   1.69307   1.69580   1.70289   1.71127
 Alpha virt. eigenvalues --    1.71737   1.72740   1.75097   1.79771   1.81032
 Alpha virt. eigenvalues --    1.84550   1.84920   1.85447   1.88093   1.90253
 Alpha virt. eigenvalues --    1.93410   2.03008   2.03984   2.06236   2.08844
 Alpha virt. eigenvalues --    2.12606   2.16092   2.18345   2.19837   2.20972
 Alpha virt. eigenvalues --    2.22532   2.25458   2.26675   2.26786   2.28285
 Alpha virt. eigenvalues --    2.31481   2.34213   2.35211   2.36855   2.37886
 Alpha virt. eigenvalues --    2.39894   2.41403   2.42463   2.45606   2.45872
 Alpha virt. eigenvalues --    2.46262   2.48992   2.50179   2.50219   2.52847
 Alpha virt. eigenvalues --    2.53218   2.56798   2.57459   2.61139   2.63450
 Alpha virt. eigenvalues --    2.66877   2.67857   2.70548   2.72080   2.80470
 Alpha virt. eigenvalues --    2.81472   2.84648   2.88362   2.97409   3.03507
 Alpha virt. eigenvalues --    3.09763   3.14825   3.16725   3.20146   3.21859
 Alpha virt. eigenvalues --    3.23292   3.24575   3.28007   3.29298   3.41041
 Alpha virt. eigenvalues --    3.44021   3.48186   3.59604   3.61309   3.73775
 Alpha virt. eigenvalues --   21.44890  21.67145  21.73885  21.74768  21.82490
 Alpha virt. eigenvalues --   21.87940  31.44670  31.58788
          Condensed to atoms (all electrons):
               1          2          3          4          5          6
     1  C    5.066760   0.290518  -0.064410  -0.012369   0.006442  -0.000478
     2  C    0.290518   5.020327   0.226280  -0.054665   0.010835   0.003606
     3  N   -0.064410   0.226280   6.256908   0.417852  -0.090597  -0.080232
     4  C   -0.012369  -0.054665   0.417852   5.056638   0.443026  -0.102897
     5  C    0.006442   0.010835  -0.090597   0.443026   5.053521   0.440010
     6  N   -0.000478   0.003606  -0.080232  -0.102897   0.440010   6.201831
     7  C    0.000067  -0.000105   0.005868   0.015081  -0.052376   0.253202
     8  C   -0.010769  -0.031818   0.460521  -0.093003  -0.129399   0.456725
     9  H    0.388276  -0.028373   0.000916  -0.002505  -0.000004  -0.000526
    10  H    0.397801  -0.036294   0.007474   0.000588  -0.000145   0.000017
    11  H    0.405066  -0.036803  -0.003731   0.007041   0.000287   0.000118
    12  H   -0.032534   0.389102  -0.020200   0.010745  -0.001159   0.000975
    13  H   -0.050870   0.420756  -0.030677  -0.010980   0.000718  -0.000583
    14  H   -0.004863  -0.000918  -0.027595   0.407744  -0.035705   0.002299
    15  H    0.000044  -0.000029   0.002517  -0.022763   0.394387  -0.024327
    16  H   -0.000000  -0.000064   0.000306  -0.001692   0.002035  -0.035341
    17  H   -0.000007   0.000038  -0.000644   0.004018  -0.013362  -0.019552
    18  H    0.000012   0.000014   0.000690  -0.001559   0.007703  -0.022845
    19  H   -0.000851  -0.002790  -0.025609   0.007635   0.004053  -0.023667
               7          8          9         10         11         12
     1  C    0.000067  -0.010769   0.388276   0.397801   0.405066  -0.032534
     2  C   -0.000105  -0.031818  -0.028373  -0.036294  -0.036803   0.389102
     3  N    0.005868   0.460521   0.000916   0.007474  -0.003731  -0.020200
     4  C    0.015081  -0.093003  -0.002505   0.000588   0.007041   0.010745
     5  C   -0.052376  -0.129399  -0.000004  -0.000145   0.000287  -0.001159
     6  N    0.253202   0.456725  -0.000526   0.000017   0.000118   0.000975
     7  C    4.927750  -0.057459  -0.000043   0.000001  -0.000000   0.000031
     8  C   -0.057459   4.955603   0.003124   0.000298  -0.001026  -0.008605
     9  H   -0.000043   0.003124   0.536263  -0.018852  -0.026248  -0.006780
    10  H    0.000001   0.000298  -0.018852   0.504674  -0.020343  -0.002010
    11  H   -0.000000  -0.001026  -0.026248  -0.020343   0.521914   0.006094
    12  H    0.000031  -0.008605  -0.006780  -0.002010   0.006094   0.516373
    13  H    0.000003   0.004781   0.007056  -0.000498  -0.005538  -0.025598
    14  H   -0.000211   0.010778   0.000109   0.000124  -0.000183   0.000167
    15  H   -0.010267   0.010069   0.000002  -0.000002   0.000023   0.000011
    16  H    0.408084  -0.006722   0.000008   0.000000  -0.000000  -0.000001
    17  H    0.390449   0.009495  -0.000000   0.000000   0.000000   0.000001
    18  H    0.395450  -0.008655  -0.000000  -0.000000  -0.000000  -0.000008
    19  H   -0.001391   0.401785   0.000325   0.000006  -0.000035   0.000320
              13         14         15         16         17         18
     1  C   -0.050870  -0.004863   0.000044  -0.000000  -0.000007   0.000012
     2  C    0.420756  -0.000918  -0.000029  -0.000064   0.000038   0.000014
     3  N   -0.030677  -0.027595   0.002517   0.000306  -0.000644   0.000690
     4  C   -0.010980   0.407744  -0.022763  -0.001692   0.004018  -0.001559
     5  C    0.000718  -0.035705   0.394387   0.002035  -0.013362   0.007703
     6  N   -0.000583   0.002299  -0.024327  -0.035341  -0.019552  -0.022845
     7  C    0.000003  -0.000211  -0.010267   0.408084   0.390449   0.395450
     8  C    0.004781   0.010778   0.010069  -0.006722   0.009495  -0.008655
     9  H    0.007056   0.000109   0.000002   0.000008  -0.000000  -0.000000
    10  H   -0.000498   0.000124  -0.000002   0.000000   0.000000  -0.000000
    11  H   -0.005538  -0.000183   0.000023  -0.000000   0.000000  -0.000000
    12  H   -0.025598   0.000167   0.000011  -0.000001   0.000001  -0.000008
    13  H    0.502243  -0.000200  -0.000007   0.000003  -0.000001  -0.000004
    14  H   -0.000200   0.454462   0.001113  -0.000008   0.000034   0.000003
    15  H   -0.000007   0.001113   0.450116   0.000323   0.000293   0.000188
    16  H    0.000003  -0.000008   0.000323   0.484240  -0.020947  -0.024406
    17  H   -0.000001   0.000034   0.000293  -0.020947   0.492386  -0.020903
    18  H   -0.000004   0.000003   0.000188  -0.024406  -0.020903   0.491451
    19  H    0.000098   0.000009  -0.000051   0.000064  -0.000031   0.000114
              19
     1  C   -0.000851
     2  C   -0.002790
     3  N   -0.025609
     4  C    0.007635
     5  C    0.004053
     6  N   -0.023667
     7  C   -0.001391
     8  C    0.401785
     9  H    0.000325
    10  H    0.000006
    11  H   -0.000035
    12  H    0.000320
    13  H    0.000098
    14  H    0.000009
    15  H   -0.000051
    16  H    0.000064
    17  H   -0.000031
    18  H    0.000114
    19  H    0.437483
 Mulliken charges:
               1
     1  C   -0.377836
     2  C   -0.169616
     3  N   -0.035635
     4  C   -0.067933
     5  C   -0.040270
     6  N   -0.048336
     7  C   -0.274134
     8  C    0.034277
     9  H    0.147252
    10  H    0.167161
    11  H    0.153363
    12  H    0.173075
    13  H    0.189299
    14  H    0.192841
    15  H    0.198357
    16  H    0.194116
    17  H    0.178732
    18  H    0.182755
    19  H    0.202531
 Sum of Mulliken charges =   1.00000
 Mulliken charges with hydrogens summed into heavy atoms:
               1
     1  C    0.089940
     2  C    0.192758
     3  N   -0.035635
     4  C    0.124909
     5  C    0.158087
     6  N   -0.048336
     7  C    0.281470
     8  C    0.236808
 Electronic spatial extent (au):  <R**2>=           1115.5988
 Charge=              1.0000 electrons
 Dipole moment (field-independent basis, Debye):
    X=              1.7910    Y=             -0.8757    Z=             -0.4618  Tot=              2.0464
 Quadrupole moment (field-independent basis, Debye-Ang):
   XX=            -23.2759   YY=            -36.1875   ZZ=            -47.5498
   XY=             -1.0298   XZ=              2.9100   YZ=              0.7760
 Traceless Quadrupole moment (field-independent basis, Debye-Ang):
   XX=             12.3952   YY=             -0.5164   ZZ=            -11.8788
   XY=             -1.0298   XZ=              2.9100   YZ=              0.7760
 Octapole moment (field-independent basis, Debye-Ang**2):
  XXX=             24.8147  YYY=              1.6483  ZZZ=             -0.3025  XYY=              6.2952
  XXY=             -4.6173  XXZ=              1.0075  XZZ=             -0.4824  YZZ=             -3.7507
  YYZ=             -1.7114  XYZ=              0.6484
 Hexadecapole moment (field-independent basis, Debye-Ang**3):
 XXXX=           -902.5665 YYYY=           -212.9499 ZZZZ=           -116.6457 XXXY=             -1.1488
 XXXZ=             18.8809 YYYX=             -3.2849 YYYZ=              6.8364 ZZZX=              8.8390
 ZZZY=             -2.5774 XXYY=           -195.8126 XXZZ=           -195.9933 YYZZ=            -62.8613
 XXYZ=              1.6589 YYXZ=              4.3765 ZZXY=             -5.0575
 N-N= 3.786514278173D+02 E-N=-1.545627195308D+03  KE= 3.428878848036D+02
 No NMR shielding tensors so no spin-rotation constants.
 Leave Link  601 at Tue Feb 23 01:59:32 2021, MaxMem=   104857600 cpu:               8.4 elap:               0.4
 (Enter /sw/arch/RedHatEnterpriseServer7/EB_production/2019/software/Gaussian/g16.c01/l701.exe)
 ... and contract with generalized density number  0.
 Compute integral first derivatives.
 R6Disp: Adding Grimme-D3 dispersion energy 1st derivatives to the gradient.
 PrsmSu:  requested number of processors reduced to:  29 ShMem   1 Linda.
 D1PCM: PCM CHGder 1st derivatives, ID1Alg=3 FixD1E=F DoIter=F DoCFld=F I1PDM=0.
 GePol: Maximum number of non-zero 1st derivatives   =     229
 CoulSu:  requested number of processors reduced to:  29 ShMem   1 Linda.
 CoulSu:  requested number of processors reduced to:  30 ShMem   1 Linda.
 Leave Link  701 at Tue Feb 23 01:59:33 2021, MaxMem=   104857600 cpu:              25.0 elap:               0.9
 (Enter /sw/arch/RedHatEnterpriseServer7/EB_production/2019/software/Gaussian/g16.c01/l702.exe)
 L702 exits ... SP integral derivatives will be done elsewhere.
 Leave Link  702 at Tue Feb 23 01:59:33 2021, MaxMem=   104857600 cpu:               0.6 elap:               0.0
 (Enter /sw/arch/RedHatEnterpriseServer7/EB_production/2019/software/Gaussian/g16.c01/l703.exe)
 Integral derivatives from FoFJK, PRISM(SPDF).
 Compute integral first derivatives, UseDBF=F ICtDFT=           0.
 Calling FoFJK, ICntrl=      2527 FMM=F ISym2X=0 I1Cent= 0 IOpClX= 0 NMat=1 NMatS=1 NMatT=0.
 FoFJK:  IHMeth= 1 ICntrl=    2527 DoSepK=F KAlg= 0 I1Cent=           0 FoldK=F
 IRaf=         0 NMat=       1 IRICut=       1 DoRegI=T DoRafI=F ISym2E= 0 IDoP0=0 IntGTp=1.
 FoFCou: FMM=F IPFlag=           0 FMFlag=      100000 FMFlg1=         800
         NFxFlg=           0 DoJE=F BraDBF=F KetDBF=F FulRan=T
         wScrn=  0.000000 ICntrl=      2527 IOpCl=  0 I1Cent=           0 NGrid=           0
         NMat0=    1 NMatS0=      1 NMatT0=    0 NMatD0=    1 NMtDS0=    0 NMtDT0=    0
 Symmetry not used in FoFCou.
 Leave Link  703 at Tue Feb 23 01:59:35 2021, MaxMem=   104857600 cpu:              44.6 elap:               1.5
 (Enter /sw/arch/RedHatEnterpriseServer7/EB_production/2019/software/Gaussian/g16.c01/l716.exe)
 Dipole        = 7.04632418D-01-3.44540079D-01-1.81703852D-01
 ***** Axes restored to original set *****
 -------------------------------------------------------------------
 Center     Atomic                   Forces (Hartrees/Bohr)
 Number     Number              X              Y              Z
 -------------------------------------------------------------------
      1        6           0.000046340    0.000016098   -0.000079107
      2        6           0.000205640    0.000159736   -0.000336435
      3        7           0.003081979    0.004935306   -0.003434072
      4        6           0.000660196    0.005013098   -0.004576212
      5        6          -0.005508107   -0.003445589    0.001662376
      6        7          -0.003395600   -0.004495783    0.003306782
      7        6          -0.000237623   -0.000311727    0.000271764
      8        6           0.005001569   -0.001823103    0.002891848
      9        1          -0.000016758    0.000009217    0.000010742
     10        1          -0.000007012    0.000013254    0.000023484
     11        1           0.000004299    0.000011965   -0.000019773
     12        1           0.000024215    0.000065706   -0.000003204
     13        1           0.000075495    0.000005811   -0.000012587
     14        1           0.000058156    0.000058516   -0.000003241
     15        1           0.000024524   -0.000045537    0.000038156
     16        1           0.000101041   -0.000072562    0.000044042
     17        1          -0.000049837    0.000036067    0.000170421
     18        1          -0.000106909   -0.000107717   -0.000045477
     19        1           0.000038392   -0.000022756    0.000090493
 -------------------------------------------------------------------
 Cartesian Forces:  Max     0.005508107 RMS     0.001951327
 Leave Link  716 at Tue Feb 23 01:59:35 2021, MaxMem=   104857600 cpu:               0.9 elap:               0.1
 (Enter /sw/arch/RedHatEnterpriseServer7/EB_production/2019/software/Gaussian/g16.c01/l103.exe)

 GradGradGradGradGradGradGradGradGradGradGradGradGradGradGradGradGradGrad
 Berny optimization.
 FormGI is forming the generalized inverse of G from B-inverse, IUseBI=4.
 Internal  Forces:  Max     0.007648499 RMS     0.001338518
 Search for a local minimum.
 Step number   1 out of a maximum of  103
 All quantities printed in internal units (Hartrees-Bohrs-Radians)
 RMS Force = .13385D-02 SwitMx=.10000D-02 MixMth= 1
 Mixed Optimization -- RFO/linear search
 Second derivative matrix not updated -- first step.
 ITU=  0
     Eigenvalues ---    0.00406   0.00628   0.00755   0.01393   0.01538
     Eigenvalues ---    0.02021   0.02063   0.02225   0.02244   0.02345
     Eigenvalues ---    0.04242   0.05235   0.05528   0.05780   0.07511
     Eigenvalues ---    0.07680   0.09425   0.12723   0.15997   0.15999
     Eigenvalues ---    0.16000   0.16000   0.16000   0.16000   0.16000
     Eigenvalues ---    0.16000   0.16000   0.21953   0.22825   0.23549
     Eigenvalues ---    0.24968   0.24977   0.29683   0.33792   0.33794
     Eigenvalues ---    0.33810   0.33894   0.33987   0.34041   0.34196
     Eigenvalues ---    0.34320   0.34522   0.35527   0.35577   0.35594
     Eigenvalues ---    0.35642   0.42688   0.44453   0.47957   0.52794
     Eigenvalues ---    0.53690
 RFO step:  Lambda=-3.43792101D-04 EMin= 4.06044771D-03
 Linear search not attempted -- first point.
 Iteration  1 RMS(Cart)=  0.00935412 RMS(Int)=  0.00004800
 Iteration  2 RMS(Cart)=  0.00004985 RMS(Int)=  0.00000095
 Iteration  3 RMS(Cart)=  0.00000000 RMS(Int)=  0.00000095
 ITry= 1 IFail=0 DXMaxC= 3.27D-02 DCOld= 1.00D+10 DXMaxT= 3.00D-01 DXLimC= 3.00D+00 Rises=F
 Variable       Old X    -DE/DX   Delta X   Delta X   Delta X     New X
                                 (Linear)    (Quad)   (Total)
    R1        2.88600  -0.00003   0.00000  -0.00011  -0.00011   2.88589
    R2        2.07680  -0.00002   0.00000  -0.00005  -0.00005   2.07675
    R3        2.07652   0.00001   0.00000   0.00002   0.00002   2.07655
    R4        2.07682  -0.00001   0.00000  -0.00002  -0.00002   2.07680
    R5        2.79758  -0.00054   0.00000  -0.00157  -0.00157   2.79601
    R6        2.07352   0.00001   0.00000   0.00004   0.00004   2.07357
    R7        2.07510  -0.00001   0.00000  -0.00003  -0.00003   2.07507
    R8        2.62448  -0.00313   0.00000  -0.00653  -0.00653   2.61795
    R9        2.55155  -0.00664   0.00000  -0.01221  -0.01221   2.53933
   R10        2.60106  -0.00765   0.00000  -0.01517  -0.01517   2.58589
   R11        2.04721  -0.00002   0.00000  -0.00007  -0.00007   2.04714
   R12        2.62393  -0.00328   0.00000  -0.00682  -0.00682   2.61712
   R13        2.04748   0.00001   0.00000   0.00003   0.00003   2.04752
   R14        2.77945  -0.00068   0.00000  -0.00190  -0.00190   2.77755
   R15        2.55311  -0.00630   0.00000  -0.01163  -0.01163   2.54148
   R16        2.07260  -0.00000   0.00000  -0.00001  -0.00001   2.07260
   R17        2.06793   0.00001   0.00000   0.00002   0.00002   2.06795
   R18        2.07000  -0.00001   0.00000  -0.00004  -0.00004   2.06996
   R19        2.04828  -0.00008   0.00000  -0.00022  -0.00022   2.04806
    A1        1.93457  -0.00000   0.00000   0.00001   0.00001   1.93459
    A2        1.90396  -0.00004   0.00000  -0.00028  -0.00028   1.90368
    A3        1.94293  -0.00000   0.00000  -0.00002  -0.00002   1.94291
    A4        1.89409   0.00002   0.00000   0.00010   0.00010   1.89419
    A5        1.89957   0.00001   0.00000   0.00009   0.00009   1.89966
    A6        1.88752   0.00002   0.00000   0.00010   0.00010   1.88761
    A7        1.94890  -0.00002   0.00000  -0.00023  -0.00023   1.94867
    A8        1.94657   0.00003   0.00000   0.00036   0.00036   1.94693
    A9        1.95057   0.00004   0.00000   0.00037   0.00037   1.95094
   A10        1.86305  -0.00002   0.00000  -0.00032  -0.00032   1.86273
   A11        1.86702  -0.00004   0.00000  -0.00058  -0.00058   1.86643
   A12        1.88318   0.00001   0.00000   0.00036   0.00036   1.88353
   A13        2.19344  -0.00013   0.00000  -0.00053  -0.00053   2.19291
   A14        2.19134  -0.00057   0.00000  -0.00228  -0.00228   2.18905
   A15        1.89767   0.00070   0.00000   0.00267   0.00267   1.90034
   A16        1.86795  -0.00033   0.00000  -0.00084  -0.00083   1.86711
   A17        2.12907   0.00024   0.00000   0.00087   0.00087   2.12994
   A18        2.28608   0.00009   0.00000  -0.00004  -0.00004   2.28604
   A19        1.86960  -0.00045   0.00000  -0.00133  -0.00133   1.86827
   A20        2.28716   0.00016   0.00000   0.00025   0.00025   2.28741
   A21        2.12640   0.00029   0.00000   0.00107   0.00107   2.12748
   A22        2.19896  -0.00022   0.00000  -0.00086  -0.00086   2.19810
   A23        1.89645   0.00074   0.00000   0.00294   0.00294   1.89939
   A24        2.18722  -0.00052   0.00000  -0.00207  -0.00207   2.18515
   A25        1.91402  -0.00006   0.00000  -0.00037  -0.00037   1.91365
   A26        1.89135  -0.00013   0.00000  -0.00078  -0.00078   1.89057
   A27        1.90861  -0.00006   0.00000  -0.00039  -0.00039   1.90822
   A28        1.91598   0.00009   0.00000   0.00058   0.00058   1.91656
   A29        1.92354   0.00006   0.00000   0.00039   0.00039   1.92393
   A30        1.91001   0.00009   0.00000   0.00054   0.00054   1.91055
   A31        1.89309  -0.00066   0.00000  -0.00346  -0.00346   1.88963
   A32        2.19565   0.00029   0.00000   0.00147   0.00147   2.19713
   A33        2.19444   0.00037   0.00000   0.00199   0.00199   2.19642
    D1       -1.04484  -0.00002   0.00000  -0.00215  -0.00215  -1.04699
    D2        1.03802  -0.00004   0.00000  -0.00247  -0.00247   1.03555
    D3       -3.13547   0.00002   0.00000  -0.00150  -0.00150  -3.13697
    D4       -3.12941  -0.00002   0.00000  -0.00211  -0.00211  -3.13152
    D5       -1.04655  -0.00004   0.00000  -0.00243  -0.00243  -1.04898
    D6        1.06315   0.00002   0.00000  -0.00146  -0.00146   1.06169
    D7        1.07220  -0.00001   0.00000  -0.00204  -0.00204   1.07016
    D8       -3.12813  -0.00003   0.00000  -0.00236  -0.00236  -3.13049
    D9       -1.01843   0.00003   0.00000  -0.00139  -0.00139  -1.01982
   D10       -1.26461  -0.00001   0.00000  -0.00300  -0.00300  -1.26761
   D11        1.83101  -0.00006   0.00000  -0.00728  -0.00728   1.82373
   D12        2.88696  -0.00002   0.00000  -0.00310  -0.00310   2.88386
   D13       -0.30061  -0.00007   0.00000  -0.00738  -0.00737  -0.30798
   D14        0.87457   0.00000   0.00000  -0.00307  -0.00308   0.87150
   D15       -2.31299  -0.00005   0.00000  -0.00735  -0.00735  -2.32034
   D16        3.10718  -0.00006   0.00000  -0.00284  -0.00285   3.10434
   D17       -0.04729  -0.00007   0.00000  -0.00351  -0.00351  -0.05080
   D18        0.00508   0.00001   0.00000   0.00093   0.00094   0.00602
   D19        3.13380   0.00000   0.00000   0.00026   0.00027   3.13406
   D20       -3.10876   0.00004   0.00000   0.00282   0.00282  -3.10593
   D21        0.03670   0.00006   0.00000   0.00327   0.00327   0.03997
   D22       -0.00659  -0.00001   0.00000  -0.00090  -0.00090  -0.00749
   D23        3.13886  -0.00000   0.00000  -0.00045  -0.00046   3.13841
   D24       -0.00166  -0.00000   0.00000  -0.00058  -0.00058  -0.00224
   D25        3.13221  -0.00001   0.00000  -0.00050  -0.00050   3.13172
   D26       -3.12878   0.00001   0.00000   0.00016   0.00016  -3.12862
   D27        0.00509   0.00000   0.00000   0.00025   0.00025   0.00533
   D28       -3.10965   0.00000   0.00000  -0.00021  -0.00021  -3.10987
   D29       -0.00234  -0.00000   0.00000   0.00004   0.00005  -0.00229
   D30        0.03880   0.00000   0.00000  -0.00029  -0.00029   0.03851
   D31       -3.13707  -0.00000   0.00000  -0.00003  -0.00003  -3.13710
   D32        1.76742  -0.00013   0.00000  -0.01708  -0.01708   1.75035
   D33       -0.32382  -0.00013   0.00000  -0.01709  -0.01709  -0.34091
   D34       -2.40468  -0.00013   0.00000  -0.01707  -0.01707  -2.42174
   D35       -1.33437  -0.00015   0.00000  -0.01747  -0.01747  -1.35184
   D36        2.85758  -0.00015   0.00000  -0.01749  -0.01749   2.84008
   D37        0.77672  -0.00014   0.00000  -0.01747  -0.01747   0.75925
   D38        0.00554   0.00001   0.00000   0.00053   0.00053   0.00607
   D39       -3.13991  -0.00000   0.00000   0.00008   0.00008  -3.13983
   D40        3.11314   0.00001   0.00000   0.00081   0.00081   3.11396
   D41       -0.03231   0.00000   0.00000   0.00037   0.00037  -0.03194
         Item               Value     Threshold  Converged?
 Maximum Force            0.007648     0.000450     NO 
 RMS     Force            0.001339     0.000300     NO 
 Maximum Displacement     0.032687     0.001800     NO 
 RMS     Displacement     0.009355     0.001200     NO 
 Predicted change in Energy=-1.723646D-04
 Lowest energy point so far.  Saving SCF results.
 GradGradGradGradGradGradGradGradGradGradGradGradGradGradGradGradGradGrad

 Leave Link  103 at Tue Feb 23 01:59:35 2021, MaxMem=   104857600 cpu:               1.0 elap:               0.1
 (Enter /sw/arch/RedHatEnterpriseServer7/EB_production/2019/software/Gaussian/g16.c01/l202.exe)
                          Input orientation:                          
 ---------------------------------------------------------------------
 Center     Atomic      Atomic             Coordinates (Angstroms)
 Number     Number       Type             X           Y           Z
 ---------------------------------------------------------------------
      1          6           0        0.739023   -0.742948   -0.101238
      2          6           0        0.659952    0.665325    0.484168
      3          7           0        1.765998    1.520611    0.000101
      4          6           0        3.092891    1.419248    0.385198
      5          6           0        3.788582    2.357678   -0.327451
      6          7           0        2.874953    3.012601   -1.136376
      7          6           0        3.184911    4.075996   -2.102540
      8          6           0        1.654770    2.487372   -0.926553
      9          1           0        0.682291   -0.714110   -1.198363
     10          1           0       -0.104851   -1.336770    0.276582
     11          1           0        1.670691   -1.246212    0.192891
     12          1           0       -0.274124    1.167250    0.202023
     13          1           0        0.719980    0.654773    1.580553
     14          1           0        3.421707    0.706603    1.131894
     15          1           0        4.840441    2.617596   -0.324894
     16          1           0        3.224411    3.654753   -3.114419
     17          1           0        4.156968    4.505432   -1.841368
     18          1           0        2.415249    4.853319   -2.045576
     19          1           0        0.738649    2.794385   -1.417532
 ---------------------------------------------------------------------
                    Distance matrix (angstroms):
                    1          2          3          4          5
     1  C    0.000000
     2  C    1.527149   0.000000
     3  N    2.487700   1.479586   0.000000
     4  C    3.233019   2.548998   1.385359   0.000000
     5  C    4.354867   3.648440   2.213327   1.368395   0.000000
     6  N    4.442731   3.611384   2.178851   2.213923   1.384919
     7  C    5.762795   4.969825   3.600612   3.640827   2.543222
     8  C    3.457558   2.509911   1.343758   2.220309   2.220112
     9  H    1.098969   2.175833   2.757665   3.587461   4.454595
    10  H    1.098861   2.153230   3.426536   4.222912   5.401169
    11  H    1.098996   2.181835   2.775168   3.027261   4.212392
    12  H    2.183412   1.097284   2.080321   3.381397   4.266502
    13  H    2.186872   1.098078   2.083665   2.764779   3.994582
    14  H    3.289165   2.836995   2.164471   1.083299   2.233905
    15  H    5.307062   4.684275   3.280426   2.234771   1.083499
    16  H    5.881852   5.335069   4.047439   4.154768   3.125361
    17  H    6.500453   5.690664   4.244631   3.951504   2.653394
    18  H    6.156979   5.198074   3.963996   4.261538   3.326593
    19  H    3.774302   2.855793   2.165093   3.268531   3.268192
                    6          7          8          9         10
     6  N    0.000000
     7  C    1.469816   0.000000
     8  C    1.344893   2.499601   0.000000
     9  H    4.324348   5.479577   3.356946   0.000000
    10  H    5.458270   6.766151   4.378112   1.784030   0.000000
    11  H    4.621112   5.990640   3.897827   1.787639   1.779819
    12  H    3.887585   5.073139   2.595580   2.532849   2.510842
    13  H    4.193443   5.598735   3.243121   3.098005   2.519311
    14  H    3.280489   4.676585   3.245059   3.866901   4.164558
    15  H    2.162793   2.833326   3.244603   5.399391   6.360401
    16  H    2.108823   1.096770   2.934844   5.405609   6.891892
    17  H    2.090244   1.094313   3.342222   6.303210   7.535260
    18  H    2.103858   1.095378   2.725481   5.892129   7.075346
    19  H    2.165747   2.845340   1.083787   3.515786   4.544002
                   11         12         13         14         15
    11  H    0.000000
    12  H    3.099545   0.000000
    13  H    2.538346   1.775168   0.000000
    14  H    2.785905   3.838752   2.739217   0.000000
    15  H    5.024383   5.342276   4.945868   2.790507   0.000000
    16  H    6.113248   5.424592   6.108586   5.173169   3.386546
    17  H    6.587958   5.912147   6.192738   4.879753   2.516099
    18  H    6.539830   5.086407   5.800909   5.320200   3.720317
    19  H    4.448436   2.509230   3.683314   4.249377   4.248506
                   16         17         18         19
    16  H    0.000000
    17  H    1.792756   0.000000
    18  H    1.798257   1.787823   0.000000
    19  H    3.130283   3.846066   2.728486   0.000000
 Stoichiometry    C6H11N2(1+)
 Framework group  C1[X(C6H11N2)]
 Deg. of freedom    51
 Full point group                 C1      NOp   1
 RotChk:  IX=0 Diff= 2.93D-03
 Largest Abelian subgroup         C1      NOp   1
 Largest concise Abelian subgroup C1      NOp   1
                         Standard orientation:                         
 ---------------------------------------------------------------------
 Center     Atomic      Atomic             Coordinates (Angstroms)
 Number     Number       Type             X           Y           Z
 ---------------------------------------------------------------------
      1          6           0       -2.864312   -0.249216    0.716923
      2          6           0       -2.032595   -0.372774   -0.557897
      3          7           0       -0.624091    0.019353   -0.330900
      4          6           0       -0.166902    1.313176   -0.140586
      5          6           0        1.181091    1.232168    0.080456
      6          7           0        1.521817   -0.108997    0.024055
      7          6           0        2.863564   -0.668155    0.241809
      8          6           0        0.412566   -0.828648   -0.221714
      9          1           0       -2.462372   -0.894922    1.510170
     10          1           0       -3.896646   -0.559518    0.503629
     11          1           0       -2.886650    0.787649    1.080521
     12          1           0       -2.016989   -1.404727   -0.930538
     13          1           0       -2.418416    0.270270   -1.360027
     14          1           0       -0.828442    2.169573   -0.190436
     15          1           0        1.919695    2.003237    0.264543
     16          1           0        2.934567   -1.070621    1.259593
     17          1           0        3.596233    0.133614    0.108076
     18          1           0        3.050211   -1.459399   -0.492322
     19          1           0        0.364253   -1.906956   -0.319236
 ---------------------------------------------------------------------
 Rotational constants (GHZ):           5.2533723           1.2622720           1.1145250
 Leave Link  202 at Tue Feb 23 01:59:35 2021, MaxMem=   104857600 cpu:               0.8 elap:               0.1
 (Enter /sw/arch/RedHatEnterpriseServer7/EB_production/2019/software/Gaussian/g16.c01/l301.exe)
 Standard basis: TZVP (5D, 7F)
 Ernie: Thresh=  0.10000D-02 Tol=  0.10000D-05 Strict=F.
 There are   226 symmetry adapted cartesian basis functions of A   symmetry.
 There are   218 symmetry adapted basis functions of A   symmetry.
   218 basis functions,   368 primitive gaussians,   226 cartesian basis functions
    30 alpha electrons       30 beta electrons
       nuclear repulsion energy       379.5928965096 Hartrees.
 IExCor=  404 DFT=T Ex=B Corr=P86 ExCW=0 ScaHFX=  0.000000
 ScaDFX=  1.000000  1.000000  1.000000  1.000000 ScalE2=  1.000000  1.000000
 IRadAn=      5 IRanWt=     -1 IRanGd=            0 ICorTp=0 IEmpDi=131
 NAtoms=   19 NActive=   19 NUniq=   19 SFac= 1.00D+00 NAtFMM=   60 NAOKFM=F Big=F
 Integral buffers will be    131072 words long.
 Raffenetti 2 integral format.
 Two-electron integral symmetry is turned on.
 R6Disp:  Grimme-D3 Dispersion energy=       -0.0140242843 Hartrees.
 Nuclear repulsion after empirical dispersion term =      379.5788722253 Hartrees.
 ------------------------------------------------------------------------------
 Polarizable Continuum Model (PCM)
 =================================
 Model                : PCM.
 Atomic radii         : UFF (Universal Force Field).
 Polarization charges : Total charges.
 Charge compensation  : None.
 Solution method      : On-the-fly selection.
 Cavity type          : Scaled VdW (van der Waals Surface) (Alpha=1.100).
 Cavity algorithm     : GePol (No added spheres)
                        Default sphere list used, NSphG=   19.
                        Lebedev-Laikov grids with approx.  5.0 points / Ang**2.
                        Smoothing algorithm: York/Karplus (Gamma=1.0000).
                        Polarization charges: spherical gaussians, with
                                              point-specific exponents (IZeta= 3).
                        Self-potential: point-specific (ISelfS= 7).
                        Self-field    : sphere-specific E.n sum rule (ISelfD= 2).
 1st derivatives      : Analytical E(r).r(x)/FMM algorithm (CHGder, D1EAlg=3).
                        Cavity 1st derivative terms included.
 Solvent              : Water, Eps=  78.355300 Eps(inf)=   1.777849
 ------------------------------------------------------------------------------
 Spheres list:
 ISph  on   Nord     Re0    Alpha      Xe            Ye            Ze
    1   C      1    1.9255  1.100     -2.864312     -0.249216      0.716923
    2   C      2    1.9255  1.100     -2.032595     -0.372774     -0.557897
    3   N      3    1.8300  1.100     -0.624091      0.019353     -0.330900
    4   C      4    1.9255  1.100     -0.166902      1.313176     -0.140586
    5   C      5    1.9255  1.100      1.181091      1.232168      0.080456
    6   N      6    1.8300  1.100      1.521817     -0.108997      0.024055
    7   C      7    1.9255  1.100      2.863564     -0.668155      0.241809
    8   C      8    1.9255  1.100      0.412566     -0.828648     -0.221714
    9   H      9    1.4430  1.100     -2.462372     -0.894922      1.510170
   10   H     10    1.4430  1.100     -3.896646     -0.559518      0.503629
   11   H     11    1.4430  1.100     -2.886650      0.787649      1.080521
   12   H     12    1.4430  1.100     -2.016989     -1.404727     -0.930538
   13   H     13    1.4430  1.100     -2.418416      0.270270     -1.360027
   14   H     14    1.4430  1.100     -0.828442      2.169573     -0.190436
   15   H     15    1.4430  1.100      1.919695      2.003237      0.264543
   16   H     16    1.4430  1.100      2.934567     -1.070621      1.259593
   17   H     17    1.4430  1.100      3.596233      0.133614      0.108076
   18   H     18    1.4430  1.100      3.050211     -1.459399     -0.492322
   19   H     19    1.4430  1.100      0.364253     -1.906956     -0.319236
 ------------------------------------------------------------------------------
 GePol: Number of generator spheres                  =      19
 GePol: Total number of spheres                      =      19
 GePol: Number of exposed spheres                    =      19 (100.00%)
 GePol: Number of points                             =    1487
 GePol: Average weight of points                     =       0.13
 GePol: Minimum weight of points                     =   0.10D-06
[...]
 Cavity algorithm     : GePol (No added spheres)
                        Default sphere list used, NSphG=   19.
                        Tesserae with average area of 0.200 Ang**2.
                        Smoothing algorithm: None.
                        Polarization charges: point-like.
                        Self-potential: constant (ISelfS= 1).
                        Self-field    : global E.n sum rule (ISelfD= 3).
 Solvent              : Water, Eps=  78.355300 Eps(inf)=   1.777849
 ------------------------------------------------------------------------------
 Spheres list:
 ISph  on   Nord     Re0    Alpha      Xe            Ye            Ze
    1   C      1    2.0000  1.000     -2.853305     -0.290147      0.722001
    2   C      2    2.0000  1.000     -2.039688     -0.332190     -0.569931
    3   N      3    1.8300  1.000     -0.626267      0.041885     -0.341130
    4   C      4    2.0000  1.000     -0.152720      1.327485     -0.129142
    5   C      5    2.0000  1.000      1.191052      1.226327      0.107487
    6   N      6    1.8300  1.000      1.514293     -0.120247      0.042691
    7   C      7    2.0000  1.000      2.859164     -0.684496      0.217524
    8   C      8    2.0000  1.000      0.399160     -0.819607     -0.228139
    9   H      9    1.3000  1.000     -2.447096     -0.991442      1.464241
   10   H     10    1.3000  1.000     -3.891088     -0.577301      0.502558
   11   H     11    1.3000  1.000     -2.861253      0.719673      1.155465
   12   H     12    1.3000  1.000     -2.033754     -1.337339     -1.010254
   13   H     13    1.3000  1.000     -2.435485      0.362566     -1.322434
   14   H     14    1.3000  1.000     -0.803037      2.193104     -0.171326
   15   H     15    1.3000  1.000      1.937998      1.985036      0.308028
   16   H     16    1.3000  1.000      3.248518     -0.388481      1.198456
   17   H     17    1.3000  1.000      3.515467     -0.309815     -0.576945
   18   H     18    1.3000  1.000      2.795430     -1.775675      0.160799
   19   H     19    1.3000  1.000      0.336140     -1.896023     -0.338313
 ------------------------------------------------------------------------------
 One-electron integrals computed using PRISM.
 PrsmSu:  requested number of processors reduced to:  29 ShMem   1 Linda.
 NBasis=   218 RedAO= T EigKep=  1.48D-04  NBF=   218
 NBsUse=   218 1.00D-06 EigRej= -1.00D+00 NBFU=   218
 Initial guess from the checkpoint file:  "NJMWOUFKYKNWDW-UHFFFAOYSA-N.chk"
 B after Tr=    -0.000000   -0.000000    0.000000
         Rot=    1.000000    0.000000    0.000000    0.000000 Ang=   0.00 deg.
 Requested convergence on RMS density matrix=1.00D-08 within 128 cycles.
 Requested convergence on MAX density matrix=1.00D-06.
 Requested convergence on             energy=1.00D-06.
 No special actions if energy rises.
 Inv3:  Mode=1 IEnd=     4590507.
 Iteration    1 A*A^-1 deviation from unit magnitude is 5.33D-15 for    398.
 Iteration    1 A*A^-1 deviation from orthogonality  is 4.88D-15 for    915    398.
 Iteration    1 A^-1*A deviation from unit magnitude is 4.88D-15 for    398.
 Iteration    1 A^-1*A deviation from orthogonality  is 2.66D-15 for    915    398.
 Error on nuclear    polarization charges =  0.02235
 Error on electronic polarization charges = -0.04710
 SCF Done:  E(RB-P86) =  -344.732586734     A.U. after   10 cycles
            NFock= 10  Conv=0.54D-08     -V/T= 2.0052
 --------------------------------------------------------------------
 Variational C-PCM results
 =========================
 <psi(f)|   H    |psi(f)>                     (a.u.) =    -344.648168
 <psi(f)|H+V(f)/2|psi(f)>                     (a.u.) =    -344.732587
 Total free energy in solution:
 - with all non electrostatic terms           (a.u.) =    -344.721179
 --------------------------------------------------------------------
 (Polarized solute)-Solvent               (kcal/mol) =     -52.97
 --------------------------------------------------------------------
 Cavitation energy                        (kcal/mol) =      21.65
 Dispersion energy                        (kcal/mol) =     -15.81
 Repulsion energy                         (kcal/mol) =       1.32
 Total non electrostatic                  (kcal/mol) =       7.16
 --------------------------------------------------------------------
 Partition over spheres:
 Sphere  on Atom  Surface  Charge   GEl     GCav    GDR
    1      C1      18.29  -0.009   -0.60    2.15   -1.30
    2      C2      10.50  -0.058   -2.99    1.23   -0.59
    3      N3       1.89  -0.009   -0.47    0.23   -0.05
    4      C4      15.19  -0.046   -2.45    1.78   -1.01
    5      C5      15.75  -0.048   -2.56    1.85   -1.20
    6      N6       2.42  -0.012   -0.66    0.29   -0.08
    7      C7      19.56  -0.094   -4.84    2.30   -1.38
    8      C8      15.61  -0.106   -6.21    1.83   -1.01
    9      H9       6.52  -0.033   -1.48    0.92   -0.70
   10      H10      6.52  -0.036   -1.43    0.92   -0.76
   11      H11      6.46  -0.034   -1.53    0.91   -0.61
   12      H12      6.35  -0.057   -3.09    0.90   -0.71
   13      H13      6.51  -0.053   -2.64    0.92   -0.77
   14      H14      6.33  -0.073   -3.90    0.89   -0.70
   15      H15      6.34  -0.074   -3.93    0.89   -0.74
   16      H16      6.49  -0.055   -2.76    0.92   -0.75
   17      H17      6.49  -0.055   -2.72    0.92   -0.77
   18      H18      6.34  -0.060   -3.27    0.89   -0.65
   19      H19      6.34  -0.088   -5.45    0.89   -0.72
 --------------------------------------------------------------------
 - cavitation energy not included in the total energy.
 - dispersion energy not included in the total energy.
 - repulsion  energy not included in the total energy.
 After PCM corrections, the energy is  -344.732586734     a.u.
 --------------------------------------------------------------------
 Writing COSMO formatted file "NJMWOUFKYKNWDW-UHFFFAOYSA-N.cosmo"
 Recomputed dielectric energy= -0.082526 old= -0.084419 diff= 1.89D-03

 **********************************************************************

            Population analysis using the SCF Density.

 **********************************************************************

 Orbital symmetries:
       Occupied  (A) (A) (A) (A) (A) (A) (A) (A) (A) (A) (A) (A)
                 (A) (A) (A) (A) (A) (A) (A) (A) (A) (A) (A) (A)
                 (A) (A) (A) (A) (A) (A)
       Virtual   (A) (A) (A) (A) (A) (A) (A) (A) (A) (A) (A) (A)
                 (A) (A) (A) (A) (A) (A) (A) (A) (A) (A) (A) (A)
                 (A) (A) (A) (A) (A) (A) (A) (A) (A) (A) (A) (A)
                 (A) (A) (A) (A) (A) (A) (A) (A) (A) (A) (A) (A)
                 (A) (A) (A) (A) (A) (A) (A) (A) (A) (A) (A) (A)
                 (A) (A) (A) (A) (A) (A) (A) (A) (A) (A) (A) (A)
                 (A) (A) (A) (A) (A) (A) (A) (A) (A) (A) (A) (A)
                 (A) (A) (A) (A) (A) (A) (A) (A) (A) (A) (A) (A)
                 (A) (A) (A) (A) (A) (A) (A) (A) (A) (A) (A) (A)
                 (A) (A) (A) (A) (A) (A) (A) (A) (A) (A) (A) (A)
                 (A) (A) (A) (A) (A) (A) (A) (A) (A) (A) (A) (A)
                 (A) (A) (A) (A) (A) (A) (A) (A) (A) (A) (A) (A)
                 (A) (A) (A) (A) (A) (A) (A) (A) (A) (A) (A) (A)
                 (A) (A) (A) (A) (A) (A) (A) (A) (A) (A) (A) (A)
                 (A) (A) (A) (A) (A) (A) (A) (A) (A) (A) (A) (A)
                 (A) (A) (A) (A) (A) (A) (A) (A)
 The electronic state is 1-A.
 Alpha  occ. eigenvalues --  -14.10478 -14.10145  -9.99919  -9.95815  -9.95760
 Alpha  occ. eigenvalues --   -9.95509  -9.94747  -9.89780  -0.99807  -0.88746
 Alpha  occ. eigenvalues --   -0.74550  -0.71689  -0.67350  -0.61068  -0.58409
 Alpha  occ. eigenvalues --   -0.56144  -0.50963  -0.46233  -0.44525  -0.43676
 Alpha  occ. eigenvalues --   -0.42929  -0.41715  -0.40242  -0.39616  -0.37075
 Alpha  occ. eigenvalues --   -0.35656  -0.34275  -0.32205  -0.28211  -0.25056
 Alpha virt. eigenvalues --   -0.06210  -0.03440   0.03034   0.03760   0.04542
 Alpha virt. eigenvalues --    0.05560   0.06371   0.07242   0.07873   0.09130
 Alpha virt. eigenvalues --    0.09370   0.10248   0.10653   0.11010   0.11673
 Alpha virt. eigenvalues --    0.12027   0.14217   0.15139   0.16657   0.17379
 Alpha virt. eigenvalues --    0.19064   0.20115   0.20761   0.21428   0.22569
 Alpha virt. eigenvalues --    0.23219   0.24328   0.25753   0.26478   0.27754
 Alpha virt. eigenvalues --    0.29090   0.30349   0.33312   0.33707   0.35374
 Alpha virt. eigenvalues --    0.36394   0.36942   0.38339   0.38553   0.38898
 Alpha virt. eigenvalues --    0.40414   0.40735   0.41039   0.42629   0.42946
 Alpha virt. eigenvalues --    0.43627   0.44120   0.45913   0.47065   0.48093
 Alpha virt. eigenvalues --    0.49253   0.49526   0.51491   0.52269   0.56313
 Alpha virt. eigenvalues --    0.57029   0.58668   0.60839   0.63021   0.67004
 Alpha virt. eigenvalues --    0.68514   0.69452   0.72036   0.84652   1.03803
 Alpha virt. eigenvalues --    1.11019   1.14528   1.15129   1.16704   1.17639
 Alpha virt. eigenvalues --    1.19095   1.20095   1.21160   1.21915   1.23503
 Alpha virt. eigenvalues --    1.24739   1.26073   1.26835   1.28140   1.28422
 Alpha virt. eigenvalues --    1.31482   1.32273   1.32650   1.34328   1.35510
 Alpha virt. eigenvalues --    1.35866   1.36727   1.39699   1.41639   1.43401
 Alpha virt. eigenvalues --    1.43982   1.47454   1.50590   1.51250   1.53169
 Alpha virt. eigenvalues --    1.54129   1.55955   1.59325   1.59721   1.61738
 Alpha virt. eigenvalues --    1.62666   1.65416   1.66906   1.68644   1.69358
 Alpha virt. eigenvalues --    1.70273   1.70483   1.70815   1.71440   1.72324
 Alpha virt. eigenvalues --    1.72638   1.74907   1.76406   1.81113   1.82346
 Alpha virt. eigenvalues --    1.86281   1.86715   1.87281   1.89450   1.91252
 Alpha virt. eigenvalues --    1.93118   2.03861   2.05964   2.07166   2.11110
 Alpha virt. eigenvalues --    2.14373   2.17504   2.18803   2.21236   2.22493
 Alpha virt. eigenvalues --    2.24547   2.26691   2.28555   2.29088   2.30151
 Alpha virt. eigenvalues --    2.33804   2.34947   2.37503   2.39447   2.40385
 Alpha virt. eigenvalues --    2.41214   2.43222   2.43454   2.46334   2.47101
 Alpha virt. eigenvalues --    2.47946   2.49878   2.51050   2.52440   2.53857
 Alpha virt. eigenvalues --    2.55434   2.57579   2.58221   2.63070   2.64875
 Alpha virt. eigenvalues --    2.68339   2.71174   2.71460   2.73673   2.82034
 Alpha virt. eigenvalues --    2.82520   2.85931   2.89993   2.99950   3.04889
 Alpha virt. eigenvalues --    3.11753   3.14875   3.19348   3.20364   3.23575
 Alpha virt. eigenvalues --    3.25218   3.26485   3.28785   3.30169   3.42735
 Alpha virt. eigenvalues --    3.45939   3.50808   3.61414   3.62965   3.75695
 Alpha virt. eigenvalues --   21.47007  21.68266  21.75172  21.77095  21.85196
 Alpha virt. eigenvalues --   21.89900  31.45432  31.60927
          Condensed to atoms (all electrons):
               1          2          3          4          5          6
     1  C    5.081959   0.293095  -0.067156  -0.011222   0.004076  -0.000383
     2  C    0.293095   5.016826   0.228484  -0.054968   0.014035   0.003621
     3  N   -0.067156   0.228484   6.266497   0.419169  -0.094689  -0.087570
     4  C   -0.011222  -0.054968   0.419169   5.045566   0.467012  -0.104545
     5  C    0.004076   0.014035  -0.094689   0.467012   5.058120   0.428650
     6  N   -0.000383   0.003621  -0.087570  -0.104545   0.428650   6.193298
     7  C   -0.000008  -0.000081   0.007051   0.011748  -0.058508   0.255223
     8  C   -0.009820  -0.037194   0.458447  -0.108000  -0.115817   0.468175
     9  H    0.390483  -0.029852   0.000571  -0.002576   0.000260  -0.000606
    10  H    0.397712  -0.036995   0.007648   0.000539  -0.000132   0.000016
    11  H    0.404047  -0.036712  -0.002939   0.006743  -0.000018   0.000115
    12  H   -0.033094   0.391720  -0.020005   0.010322  -0.001122   0.000920
    13  H   -0.047469   0.416232  -0.029195  -0.011422   0.001200  -0.000604
    14  H   -0.004075  -0.001302  -0.027886   0.412744  -0.040181   0.002455
    15  H    0.000025  -0.000061   0.002535  -0.029359   0.401936  -0.026246
    16  H   -0.000005  -0.000001  -0.000296   0.000871  -0.007082  -0.031561
    17  H    0.000004  -0.000002  -0.000379   0.000441  -0.006453  -0.034212
    18  H   -0.000007   0.000051   0.000748  -0.001002   0.009920  -0.016072
    19  H   -0.000993  -0.001622  -0.024995   0.007637   0.004252  -0.023456
               7          8          9         10         11         12
     1  C   -0.000008  -0.009820   0.390483   0.397712   0.404047  -0.033094
     2  C   -0.000081  -0.037194  -0.029852  -0.036995  -0.036712   0.391720
     3  N    0.007051   0.458447   0.000571   0.007648  -0.002939  -0.020005
     4  C    0.011748  -0.108000  -0.002576   0.000539   0.006743   0.010322
     5  C   -0.058508  -0.115817   0.000260  -0.000132  -0.000018  -0.001122
     6  N    0.255223   0.468175  -0.000606   0.000016   0.000115   0.000920
     7  C    4.939116  -0.049982  -0.000005   0.000001   0.000006   0.000059
     8  C   -0.049982   4.952640   0.003743   0.000301  -0.001255  -0.009546
     9  H   -0.000005   0.003743   0.533809  -0.019766  -0.026126  -0.006549
    10  H    0.000001   0.000301  -0.019766   0.505907  -0.020941  -0.001767
    11  H    0.000006  -0.001255  -0.026126  -0.020941   0.520915   0.006064
    12  H    0.000059  -0.009546  -0.006549  -0.001767   0.006064   0.509131
    13  H    0.000008   0.005804   0.006899  -0.000689  -0.005435  -0.026069
    14  H   -0.000222   0.010475   0.000062   0.000110   0.000159   0.000179
    15  H   -0.004978   0.010082   0.000005  -0.000001   0.000020   0.000010
    16  H    0.403725   0.002891   0.000001   0.000000   0.000000   0.000001
    17  H    0.407429   0.001472  -0.000001  -0.000000  -0.000000  -0.000002
    18  H    0.383451  -0.009535   0.000002   0.000000  -0.000000  -0.000009
    19  H   -0.005592   0.401990   0.000364   0.000009  -0.000023   0.000537
              13         14         15         16         17         18
     1  C   -0.047469  -0.004075   0.000025  -0.000005   0.000004  -0.000007
     2  C    0.416232  -0.001302  -0.000061  -0.000001  -0.000002   0.000051
     3  N   -0.029195  -0.027886   0.002535  -0.000296  -0.000379   0.000748
     4  C   -0.011422   0.412744  -0.029359   0.000871   0.000441  -0.001002
     5  C    0.001200  -0.040181   0.401936  -0.007082  -0.006453   0.009920
     6  N   -0.000604   0.002455  -0.026246  -0.031561  -0.034212  -0.016072
     7  C    0.000008  -0.000222  -0.004978   0.403725   0.407429   0.383451
     8  C    0.005804   0.010475   0.010082   0.002891   0.001472  -0.009535
     9  H    0.006899   0.000062   0.000005   0.000001  -0.000001   0.000002
    10  H   -0.000689   0.000110  -0.000001   0.000000  -0.000000   0.000000
    11  H   -0.005435   0.000159   0.000020   0.000000  -0.000000  -0.000000
    12  H   -0.026069   0.000179   0.000010   0.000001  -0.000002  -0.000009
    13  H    0.502977  -0.000045   0.000003  -0.000000  -0.000001  -0.000000
    14  H   -0.000045   0.450177   0.000927   0.000000   0.000001   0.000009
    15  H    0.000003   0.000927   0.444548   0.000126  -0.000070   0.000138
    16  H   -0.000000   0.000000   0.000126   0.489780  -0.027353  -0.020834
    17  H   -0.000001   0.000001  -0.000070  -0.027353   0.487900  -0.020500
    18  H   -0.000000   0.000009   0.000138  -0.020834  -0.020500   0.490456
    19  H    0.000064   0.000017  -0.000048  -0.000002   0.000037   0.001370
              19
     1  C   -0.000993
     2  C   -0.001622
     3  N   -0.024995
     4  C    0.007637
     5  C    0.004252
     6  N   -0.023456
     7  C   -0.005592
     8  C    0.401990
     9  H    0.000364
    10  H    0.000009
    11  H   -0.000023
    12  H    0.000537
    13  H    0.000064
    14  H    0.000017
    15  H   -0.000048
    16  H   -0.000002
    17  H    0.000037
    18  H    0.001370
    19  H    0.426017
 Mulliken charges:
               1
     1  C   -0.397170
     2  C   -0.165273
     3  N   -0.036038
     4  C   -0.059697
     5  C   -0.065457
     6  N   -0.027218
     7  C   -0.288441
     8  C    0.025130
     9  H    0.149282
    10  H    0.168049
    11  H    0.155380
    12  H    0.179220
    13  H    0.187744
    14  H    0.196399
    15  H    0.200411
    16  H    0.189741
    17  H    0.191689
    18  H    0.181815
    19  H    0.214436
 Sum of Mulliken charges =   1.00000
 Mulliken charges with hydrogens summed into heavy atoms:
               1
     1  C    0.075541
     2  C    0.201690
     3  N   -0.036038
     4  C    0.136702
     5  C    0.134953
     6  N   -0.027218
     7  C    0.274804
     8  C    0.239566
 Electronic spatial extent (au):  <R**2>=           1109.5613
 Charge=              1.0000 electrons
 Dipole moment (field-independent basis, Debye):
    X=              1.8157    Y=             -0.9124    Z=             -0.5547  Tot=              2.1064
 Quadrupole moment (field-independent basis, Debye-Ang):
   XX=            -23.8998   YY=            -36.0821   ZZ=            -47.6101
   XY=             -1.2308   XZ=              3.0532   YZ=              0.9621
 Traceless Quadrupole moment (field-independent basis, Debye-Ang):
   XX=             11.9642   YY=             -0.2181   ZZ=            -11.7461
   XY=             -1.2308   XZ=              3.0532   YZ=              0.9621
 Octapole moment (field-independent basis, Debye-Ang**2):
  XXX=             25.0921  YYY=              0.2979  ZZZ=             -0.8405  XYY=              5.8056
  XXY=             -4.4934  XXZ=              0.2842  XZZ=              0.3265  YZZ=             -2.2940
  YYZ=             -1.3852  XYZ=              0.6929
 Hexadecapole moment (field-independent basis, Debye-Ang**3):
 XXXX=           -907.1643 YYYY=           -209.1849 ZZZZ=           -119.3151 XXXY=             -4.6511
 XXXZ=             19.5377 YYYX=             -7.2083 YYYZ=              6.2963 ZZZX=              9.0143
 ZZZY=             -0.6474 XXYY=           -197.8892 XXZZ=           -191.3219 YYZZ=            -65.0468
 XXYZ=              1.3565 YYXZ=              5.9969 ZZXY=             -0.9486
 N-N= 3.795461949939D+02 E-N=-1.547401272165D+03  KE= 3.429516198862D+02
 Unable to Open any file for archive entry.
 1\1\GINC-TCN1650\SP\RBP86\TZVP\C6H11N2(1+)\ELENAA\23-Feb-2021\0\\# BP8
 6/TZVP SCRF=COSMORS geom=CHECKPOINT guess=CHECKPOINT\\COSMO-file for #
 NJMWOUFKYKNWDW-UHFFFAOYSA-N\\1,1\C,0,0.6661818397,-0.6981315616,-0.118
 7046297\C,0,0.6912485206,0.6773035669,0.5449046812\N,0,1.793989298,1.5
 170811724,0.026467006\C,0,3.1359114597,1.3799444674,0.3464540137\C,0,3
 .8219156528,2.3015914259,-0.3964546889\N,0,2.8879071633,2.9815609713,-
 1.1627528843\C,0,3.1841516169,4.075540649,-2.0971343046\C,0,1.66688556
 65,2.4895643625,-0.892530768\H,0,0.5231406531,-0.6071046006,-1.2045190
 868\H,0,-0.1680953025,-1.2815500384,0.2950726488\H,0,1.5976518218,-1.2
 494692861,0.071246368\H,0,-0.2394497119,1.2296626124,0.3633969647\H,0,
 0.8315506732,0.6020457849,1.6312991193\H,0,3.4819137003,0.6525017132,1
 .071090208\H,0,4.8789029747,2.5348952879,-0.4426341348\H,0,3.902799239
 1,3.7237892559,-2.8463109095\H,0,3.603374822,4.9229612509,-1.541768701
 2\H,0,2.2563150581,4.3799150886,-2.5915280168\H,0,0.7361959545,2.82079
 88775,-1.3384928852\\Version=ES64L-G16RevC.01\State=1-A\HF=-344.732586
 7\RMSD=5.391e-09\Dipole=0.021686,0.7769006,-0.2876567\Quadrupole=1.841
 0475,0.9772437,-2.8182912,3.9996561,-1.3833005,-7.7558917\PG=C01 [X(C6
 H11N2)]\\@
 The archive entry for this job was punched.


 ... IT IS NO ONE DREAME THAT
     CAN PLEASE THESE ALL ...

                -- BEN JONSON
 Job cpu time:       0 days  0 hours  4 minutes 37.3 seconds.
 Elapsed time:       0 days  0 hours  0 minutes  9.2 seconds.
 File lengths (MBytes):  RWF=     44 Int=      0 D2E=      0 Chk=      8 Scr=      1
 Normal termination of Gaussian 16 at Tue Feb 23 02:03:03 2021.
