 Entering Gaussian System, Link 0=g16
 Input=NLXLAEXVIDQMFP-UHFFFAOYSA-N.gjf
 Output=NLXLAEXVIDQMFP-UHFFFAOYSA-N.log
 Initial command:
 /sw/arch/RedHatEnterpriseServer7/EB_production/2020/software/Gaussian/g16.c01/l1.exe "/scratch-local/elenaa.10684698/Gau-15339.inp" -scrdir="/scratch-local/elenaa.10684698/"
 Entering Link 1 = /sw/arch/RedHatEnterpriseServer7/EB_production/2020/software/Gaussian/g16.c01/l1.exe PID=     15341.
  
 Copyright (c) 1988-2019, Gaussian, Inc.  All Rights Reserved.
  
 This is part of the Gaussian(R) 16 program.  It is based on
 the Gaussian(R) 09 system (copyright 2009, Gaussian, Inc.),
 the Gaussian(R) 03 system (copyright 2003, Gaussian, Inc.),
 the Gaussian(R) 98 system (copyright 1998, Gaussian, Inc.),
 the Gaussian(R) 94 system (copyright 1995, Gaussian, Inc.),
 the Gaussian 92(TM) system (copyright 1992, Gaussian, Inc.),
 the Gaussian 90(TM) system (copyright 1990, Gaussian, Inc.),
 the Gaussian 88(TM) system (copyright 1988, Gaussian, Inc.),
 the Gaussian 86(TM) system (copyright 1986, Carnegie Mellon
 University), and the Gaussian 82(TM) system (copyright 1983,
 Carnegie Mellon University). Gaussian is a federally registered
 trademark of Gaussian, Inc.
  
 This software contains proprietary and confidential information,
 including trade secrets, belonging to Gaussian, Inc.
  
 This software is provided under written license and may be
 used, copied, transmitted, or stored only in accord with that
 written license.
  
 The following legend is applicable only to US Government
 contracts under FAR:
  
                    RESTRICTED RIGHTS LEGEND
  
 Use, reproduction and disclosure by the US Government is
 subject to restrictions as set forth in subparagraphs (a)
 and (c) of the Commercial Computer Software - Restricted
 Rights clause in FAR 52.227-19.
  
 Gaussian, Inc.
 340 Quinnipiac St., Bldg. 40, Wallingford CT 06492
  
  
 ---------------------------------------------------------------
 Warning -- This program may not be used in any manner that
 competes with the business of Gaussian, Inc. or will provide
 assistance to any competitor of Gaussian, Inc.  The licensee
 of this program is prohibited from giving any competitor of
 Gaussian, Inc. access to this program.  By using this program,
 the user acknowledges that Gaussian, Inc. is engaged in the
 business of creating and licensing software in the field of
 computational chemistry and represents and warrants to the
 licensee that it is not a competitor of Gaussian, Inc. and that
 it will not use this program in any manner prohibited above.
 ---------------------------------------------------------------
  

 Cite this work as:
 Gaussian 16, Revision C.01,
 M. J. Frisch, G. W. Trucks, H. B. Schlegel, G. E. Scuseria, 
 M. A. Robb, J. R. Cheeseman, G. Scalmani, V. Barone, 
 G. A. Petersson, H. Nakatsuji, X. Li, M. Caricato, A. V. Marenich, 
 J. Bloino, B. G. Janesko, R. Gomperts, B. Mennucci, H. P. Hratchian, 
 J. V. Ortiz, A. F. Izmaylov, J. L. Sonnenberg, D. Williams-Young, 
 F. Ding, F. Lipparini, F. Egidi, J. Goings, B. Peng, A. Petrone, 
 T. Henderson, D. Ranasinghe, V. G. Zakrzewski, J. Gao, N. Rega, 
 G. Zheng, W. Liang, M. Hada, M. Ehara, K. Toyota, R. Fukuda, 
 J. Hasegawa, M. Ishida, T. Nakajima, Y. Honda, O. Kitao, H. Nakai, 
 T. Vreven, K. Throssell, J. A. Montgomery, Jr., J. E. Peralta, 
 F. Ogliaro, M. J. Bearpark, J. J. Heyd, E. N. Brothers, K. N. Kudin, 
 V. N. Staroverov, T. A. Keith, R. Kobayashi, J. Normand, 
 K. Raghavachari, A. P. Rendell, J. C. Burant, S. S. Iyengar, 
 J. Tomasi, M. Cossi, J. M. Millam, M. Klene, C. Adamo, R. Cammi, 
 J. W. Ochterski, R. L. Martin, K. Morokuma, O. Farkas, 
 J. B. Foresman, and D. J. Fox, Gaussian, Inc., Wallingford CT, 2019.
 
 ******************************************
 Gaussian 16:  ES64L-G16RevC.01  3-Jul-2019
                21-Aug-2021 
 ******************************************
 %chk=NLXLAEXVIDQMFP-UHFFFAOYSA-N.chk
 %NProcShared=24
 Will use up to   24 processors via shared memory.
 -------------------------------------------------------------
 #P BP86/TZVP EmpiricalDispersion=GD3 SCRF=(Solvent=Water) Opt
 -------------------------------------------------------------
 1/18=20,19=15,26=3,38=1/1,3;
 2/9=110,12=2,17=6,18=5,40=1/2;
 3/5=19,7=101,11=2,25=1,30=1,70=2201,71=1,72=1,74=404,124=31/1,2,3;
 4//1;
 5/5=2,38=5,53=1/2;
 6/7=2,8=2,9=2,10=2,28=1/1;
 7//1,2,3,16;
 1/18=20,19=15,26=3/3(2);
 2/9=110/2;
 99//99;
 2/9=110/2;
 3/5=19,7=101,11=2,25=1,30=1,70=2205,71=1,72=1,74=404,124=31/1,2,3;
 4/5=5,16=3,69=1/1;
 5/5=2,38=5,53=1/2;
 7//1,2,3,16;
 1/18=20,19=15,26=3/3(-5);
 2/9=110/2;
 6/7=2,8=2,9=2,10=2,19=2,28=1/1;
 99/9=1/99;
 Leave Link    1 at Sat Aug 21 09:32:11 2021, MaxMem=           0 cpu:               2.5 elap:               0.2
 (Enter /sw/arch/RedHatEnterpriseServer7/EB_production/2020/software/Gaussian/g16.c01/l101.exe)
 -------------------------------------
 Particle #NLXLAEXVIDQMFP-UHFFFAOYSA-N
 -------------------------------------
 Symbolic Z-matrix:
 Charge =  0 Multiplicity = 1
 Cl                   -1.26495   3.06049  -1.52448 
 N                    -1.11144   0.19583  -0.50536 
 H                    -2.0144   -0.05909  -0.04656 
 H                    -0.93415  -0.44964  -1.30707 
 H                    -1.16411   1.17858  -0.85498 
 H                    -0.33363   0.11351   0.18673 
 
 Add virtual bond connecting atoms H5         and Cl1        Dist= 3.78D+00.
 ITRead=  0  0  0  0  0  0
 MicOpt= -1 -1 -1 -1 -1 -1
 NAtoms=      6 NQM=        6 NQMF=       0 NMMI=      0 NMMIF=      0
                NMic=       0 NMicF=      0.
                    Isotopes and Nuclear Properties:
 (Nuclear quadrupole moments (NQMom) in fm**2, nuclear magnetic moments (NMagM)
  in nuclear magnetons)

  Atom         1           2           3           4           5           6
 IAtWgt=          35          14           1           1           1           1
 AtmWgt=  34.9688527  14.0030740   1.0078250   1.0078250   1.0078250   1.0078250
 NucSpn=           3           2           1           1           1           1
 AtZEff=  -0.0000000  -0.0000000  -0.0000000  -0.0000000  -0.0000000  -0.0000000
 NQMom=   -8.1650000   2.0440000   0.0000000   0.0000000   0.0000000   0.0000000
 NMagM=    0.8218740   0.4037610   2.7928460   2.7928460   2.7928460   2.7928460
 AtZNuc=  17.0000000   7.0000000   1.0000000   1.0000000   1.0000000   1.0000000
 Leave Link  101 at Sat Aug 21 09:32:11 2021, MaxMem=   104857600 cpu:               1.7 elap:               0.1
 (Enter /sw/arch/RedHatEnterpriseServer7/EB_production/2020/software/Gaussian/g16.c01/l103.exe)

 GradGradGradGradGradGradGradGradGradGradGradGradGradGradGradGradGradGrad
 Berny optimization.
 Initialization pass.
                           ----------------------------
                           !    Initial Parameters    !
                           ! (Angstroms and Degrees)  !
 --------------------------                            --------------------------
 ! Name  Definition              Value          Derivative Info.                !
 --------------------------------------------------------------------------------
 ! R1    R(1,5)                  2.0            estimate D2E/DX2                !
 ! R2    R(2,3)                  1.0444         estimate D2E/DX2                !
 ! R3    R(2,4)                  1.0444         estimate D2E/DX2                !
 ! R4    R(2,5)                  1.0444         estimate D2E/DX2                !
 ! R5    R(2,6)                  1.0444         estimate D2E/DX2                !
 ! A1    A(3,2,4)              109.4585         estimate D2E/DX2                !
 ! A2    A(3,2,5)              109.4584         estimate D2E/DX2                !
 ! A3    A(3,2,6)              109.484          estimate D2E/DX2                !
 ! A4    A(4,2,5)              109.4585         estimate D2E/DX2                !
 ! A5    A(4,2,6)              109.484          estimate D2E/DX2                !
 ! A6    A(5,2,6)              109.4839         estimate D2E/DX2                !
 ! A7    L(1,5,2,3,-1)         180.0            estimate D2E/DX2                !
 ! A8    L(1,5,2,3,-2)         180.0            estimate D2E/DX2                !
 ! D1    D(3,2,5,4)           -119.9687         estimate D2E/DX2                !
 ! D2    D(3,2,6,4)            120.0            estimate D2E/DX2                !
 ! D3    D(3,2,6,5)           -119.9999         estimate D2E/DX2                !
 ! D4    D(4,2,6,5)            120.0            estimate D2E/DX2                !
 --------------------------------------------------------------------------------
 Trust Radius=3.00D-01 FncErr=1.00D-07 GrdErr=1.00D-06 EigMax=2.50D+02 EigMin=1.00D-04
 Number of steps in this run=     27 maximum allowed number of steps=    100.
 GradGradGradGradGradGradGradGradGradGradGradGradGradGradGradGradGradGrad

 Leave Link  103 at Sat Aug 21 09:32:12 2021, MaxMem=   104857600 cpu:               0.3 elap:               0.0
 (Enter /sw/arch/RedHatEnterpriseServer7/EB_production/2020/software/Gaussian/g16.c01/l202.exe)
                          Input orientation:                          
 ---------------------------------------------------------------------
 Center     Atomic      Atomic             Coordinates (Angstroms)
 Number     Number       Type             X           Y           Z
 ---------------------------------------------------------------------
      1         17           0       -1.264947    3.060494   -1.524482
      2          7           0       -1.111444    0.195826   -0.505356
      3          1           0       -2.014404   -0.059090   -0.046557
      4          1           0       -0.934150   -0.449644   -1.307074
      5          1           0       -1.164105    1.178581   -0.854978
      6          1           0       -0.333630    0.113512    0.186729
 ---------------------------------------------------------------------
                    Distance matrix (angstroms):
                    1          2          3          4          5
     1  Cl   0.000000
     2  N    3.044421   0.000000
     3  H    3.532386   1.044421   0.000000
     4  H    3.532387   1.044422   1.705399   0.000000
     5  H    2.000000   1.044421   1.705398   1.705399   0.000000
     6  H    3.532746   1.044391   1.705642   1.705643   1.705642
                    6
     6  H    0.000000
 Stoichiometry    ClH4N
 Framework group  C1[X(ClH4N)]
 Deg. of freedom    12
 Full point group                 C1      NOp   1
 Largest Abelian subgroup         C1      NOp   1
 Largest concise Abelian subgroup C1      NOp   1
                         Standard orientation:                         
 ---------------------------------------------------------------------
 Center     Atomic      Atomic             Coordinates (Angstroms)
 Number     Number       Type             X           Y           Z
 ---------------------------------------------------------------------
      1         17           0       -1.196014    0.000004   -0.000000
      2          7           0        1.848407    0.000053   -0.000000
      3          1           0        2.196335   -0.491977    0.853035
      4          1           0        2.196337   -0.493138   -0.852364
      5          1           0        0.803986    0.000036   -0.000000
      6          1           0        2.196740    0.984642   -0.000670
 ---------------------------------------------------------------------
 Rotational constants (GHZ):         172.3842208           4.4641443           4.4641222
 Leave Link  202 at Sat Aug 21 09:32:12 2021, MaxMem=   104857600 cpu:               0.7 elap:               0.1
 (Enter /sw/arch/RedHatEnterpriseServer7/EB_production/2020/software/Gaussian/g16.c01/l301.exe)
 Standard basis: TZVP (5D, 7F)
 Ernie: Thresh=  0.10000D-02 Tol=  0.10000D-05 Strict=F.
 There are    67 symmetry adapted cartesian basis functions of A   symmetry.
 There are    65 symmetry adapted basis functions of A   symmetry.
    65 basis functions,   114 primitive gaussians,    67 cartesian basis functions
    14 alpha electrons       14 beta electrons
       nuclear repulsion energy        48.8708466567 Hartrees.
 IExCor=  404 DFT=T Ex=B Corr=P86 ExCW=0 ScaHFX=  0.000000
 ScaDFX=  1.000000  1.000000  1.000000  1.000000 ScalE2=  1.000000  1.000000
 IRadAn=      5 IRanWt=     -1 IRanGd=            0 ICorTp=0 IEmpDi=131
 NAtoms=    6 NActive=    6 NUniq=    6 SFac= 1.00D+00 NAtFMM=   60 NAOKFM=F Big=F
 Integral buffers will be    131072 words long.
 Raffenetti 2 integral format.
 Two-electron integral symmetry is turned on.
 R6Disp:  Grimme-D3 Dispersion energy=       -0.0018586787 Hartrees.
 Nuclear repulsion after empirical dispersion term =       48.8689879780 Hartrees.
 ------------------------------------------------------------------------------
 Polarizable Continuum Model (PCM)
 =================================
 Model                : PCM.
 Atomic radii         : UFF (Universal Force Field).
 Polarization charges : Total charges.
 Charge compensation  : None.
 Solution method      : On-the-fly selection.
 Cavity type          : Scaled VdW (van der Waals Surface) (Alpha=1.100).
 Cavity algorithm     : GePol (No added spheres)
                        Default sphere list used, NSphG=    6.
                        Lebedev-Laikov grids with approx.  5.0 points / Ang**2.
                        Smoothing algorithm: York/Karplus (Gamma=1.0000).
                        Polarization charges: spherical gaussians, with
                                              point-specific exponents (IZeta= 3).
                        Self-potential: point-specific (ISelfS= 7).
                        Self-field    : sphere-specific E.n sum rule (ISelfD= 2).
 1st derivatives      : Analytical E(r).r(x)/FMM algorithm (CHGder, D1EAlg=3).
                        Cavity 1st derivative terms included.
 Solvent              : Water, Eps=  78.355300 Eps(inf)=   1.777849
 ------------------------------------------------------------------------------
 Spheres list:
 ISph  on   Nord     Re0    Alpha      Xe            Ye            Ze
    1  Cl      1    1.9735  1.100     -1.196014      0.000004     -0.000000
    2   N      2    1.8300  1.100      1.848407      0.000053     -0.000000
    3   H      3    1.4430  1.100      2.196335     -0.491977      0.853035
    4   H      4    1.4430  1.100      2.196337     -0.493138     -0.852364
    5   H      5    1.4430  1.100      0.803986      0.000036     -0.000000
    6   H      6    1.4430  1.100      2.196740      0.984642     -0.000670
 ------------------------------------------------------------------------------
 GePol: Number of generator spheres                  =       6
 GePol: Total number of spheres                      =       6
 GePol: Number of exposed spheres                    =       6 (100.00%)
 GePol: Number of points                             =     707
 GePol: Average weight of points                     =       0.15
 GePol: Minimum weight of points                     =   0.55D-10
 GePol: Maximum weight of points                     =    0.21616
 GePol: Number of points with low weight             =      30
 GePol: Fraction of low-weight points (<1% of avg)   =       4.24%
 GePol: Cavity surface area                          =    107.343 Ang**2
 GePol: Cavity volume                                =     84.098 Ang**3
 Leave Link  301 at Sat Aug 21 09:32:13 2021, MaxMem=   104857600 cpu:               1.4 elap:               0.1
 (Enter /sw/arch/RedHatEnterpriseServer7/EB_production/2020/software/Gaussian/g16.c01/l302.exe)
 NPDir=0 NMtPBC=     1 NCelOv=     1 NCel=       1 NClECP=     1 NCelD=      1
         NCelK=      1 NCelE2=     1 NClLst=     1 CellRange=     0.0.
 One-electron integrals computed using PRISM.
 One-electron integral symmetry used in STVInt
 NBasis=    65 RedAO= T EigKep=  3.92D-03  NBF=    65
 NBsUse=    65 1.00D-06 EigRej= -1.00D+00 NBFU=    65
 Precomputing XC quadrature grid using
 IXCGrd= 4 IRadAn=           5 IRanWt=          -1 IRanGd=           0 AccXCQ= 0.00D+00.
 Generated NRdTot=       0 NPtTot=           0 NUsed=           0 NTot=          32
 NSgBfM=    67    67    67    67    67 MxSgAt=     6 MxSgA2=     6.
 Leave Link  302 at Sat Aug 21 09:32:13 2021, MaxMem=   104857600 cpu:               4.7 elap:               0.2
 (Enter /sw/arch/RedHatEnterpriseServer7/EB_production/2020/software/Gaussian/g16.c01/l303.exe)
 DipDrv:  MaxL=1.
 Leave Link  303 at Sat Aug 21 09:32:13 2021, MaxMem=   104857600 cpu:               0.9 elap:               0.1
 (Enter /sw/arch/RedHatEnterpriseServer7/EB_production/2020/software/Gaussian/g16.c01/l401.exe)
 ExpMin= 1.03D-01 ExpMax= 6.95D+04 ExpMxC= 2.37D+03 IAcc=3 IRadAn=         5 AccDes= 0.00D+00
 Harris functional with IExCor=  404 and IRadAn=       5 diagonalized for initial guess.
 HarFok:  IExCor=  404 AccDes= 0.00D+00 IRadAn=         5 IDoV= 1 UseB2=F ITyADJ=14
 ICtDFT=  3500011 ScaDFX=  1.000000  1.000000  1.000000  1.000000
 FoFCou: FMM=F IPFlag=           0 FMFlag=      100000 FMFlg1=           0
         NFxFlg=           0 DoJE=T BraDBF=F KetDBF=T FulRan=T
         wScrn=  0.000000 ICntrl=       500 IOpCl=  0 I1Cent=   200000004 NGrid=           0
         NMat0=    1 NMatS0=      1 NMatT0=    0 NMatD0=    1 NMtDS0=    0 NMtDT0=    0
 Petite list used in FoFCou.
 Harris En= -517.428576697035    
 JPrj=0 DoOrth=F DoCkMO=F.
 Leave Link  401 at Sat Aug 21 09:32:14 2021, MaxMem=   104857600 cpu:               4.7 elap:               0.2
 (Enter /sw/arch/RedHatEnterpriseServer7/EB_production/2020/software/Gaussian/g16.c01/l502.exe)
 Keep J ints in memory in canonical form, NReq=23649785.
 FoFCou: FMM=F IPFlag=           0 FMFlag=           0 FMFlg1=           0
         NFxFlg=           0 DoJE=F BraDBF=F KetDBF=F FulRan=T
         wScrn=  0.000000 ICntrl=       600 IOpCl=  0 I1Cent=           0 NGrid=           0
         NMat0=    1 NMatS0=   2145 NMatT0=    0 NMatD0=    1 NMtDS0=    0 NMtDT0=    0
 Symmetry not used in FoFCou.
 Two-electron integral symmetry not used.
 Closed shell SCF:
 Using DIIS extrapolation, IDIIS=  1040.
 NGot=   104857600 LenX=   102544437 LenY=   102539507
 Requested convergence on RMS density matrix=1.00D-08 within 128 cycles.
 Requested convergence on MAX density matrix=1.00D-06.
 Requested convergence on             energy=1.00D-06.
 No special actions if energy rises.

 Cycle   1  Pass 1  IDiag  1:
 Inv3:  Mode=1 IEnd=     1499547.
 Iteration    1 A*A^-1 deviation from unit magnitude is 3.00D-15 for    361.
 Iteration    1 A*A^-1 deviation from orthogonality  is 2.22D-15 for    361    141.
 Iteration    1 A^-1*A deviation from unit magnitude is 3.00D-15 for    361.
 Iteration    1 A^-1*A deviation from orthogonality  is 2.00D-15 for    394    264.
 E= -517.451432821799    
 DIIS: error= 2.82D-02 at cycle   1 NSaved=   1.
 NSaved= 1 IEnMin= 1 EnMin= -517.451432821799     IErMin= 1 ErrMin= 2.82D-02
 ErrMax= 2.82D-02  0.00D+00 EMaxC= 1.00D-01 BMatC= 5.08D-02 BMatP= 5.08D-02
 IDIUse=3 WtCom= 7.18D-01 WtEn= 2.82D-01
 Coeff-Com:  0.100D+01
 Coeff-En:   0.100D+01
 Coeff:      0.100D+01
 Gap=     0.166 Goal=   None    Shift=    0.000
 GapD=    0.166 DampG=1.000 DampE=0.500 DampFc=0.5000 IDamp=-1.
 Damping current iteration by 5.00D-01
 RMSDP=6.02D-03 MaxDP=1.08D-01              OVMax= 1.03D-01

 Cycle   2  Pass 1  IDiag  1:
 E= -517.465180611021     Delta-E=       -0.013747789222 Rises=F Damp=T
 DIIS: error= 1.06D-02 at cycle   2 NSaved=   2.
 NSaved= 2 IEnMin= 2 EnMin= -517.465180611021     IErMin= 2 ErrMin= 1.06D-02
 ErrMax= 1.06D-02  0.00D+00 EMaxC= 1.00D-01 BMatC= 6.97D-03 BMatP= 5.08D-02
 IDIUse=3 WtCom= 8.94D-01 WtEn= 1.06D-01
 Coeff-Com:  0.136D+00 0.864D+00
 Coeff-En:   0.266D+00 0.734D+00
 Coeff:      0.150D+00 0.850D+00
 Gap=     0.199 Goal=   None    Shift=    0.000
 RMSDP=9.96D-04 MaxDP=1.29D-02 DE=-1.37D-02 OVMax= 6.82D-02

 Cycle   3  Pass 1  IDiag  1:
 E= -517.488701239111     Delta-E=       -0.023520628090 Rises=F Damp=F
 DIIS: error= 4.63D-03 at cycle   3 NSaved=   3.
 NSaved= 3 IEnMin= 3 EnMin= -517.488701239111     IErMin= 3 ErrMin= 4.63D-03
 ErrMax= 4.63D-03  0.00D+00 EMaxC= 1.00D-01 BMatC= 7.57D-04 BMatP= 6.97D-03
 IDIUse=3 WtCom= 9.54D-01 WtEn= 4.63D-02
 Coeff-Com: -0.298D-01 0.204D+00 0.825D+00
 Coeff-En:   0.000D+00 0.000D+00 0.100D+01
 Coeff:     -0.285D-01 0.195D+00 0.833D+00
 Gap=     0.216 Goal=   None    Shift=    0.000
 RMSDP=6.18D-04 MaxDP=1.07D-02 DE=-2.35D-02 OVMax= 1.57D-02

 Cycle   4  Pass 1  IDiag  1:
 E= -517.488811570985     Delta-E=       -0.000110331873 Rises=F Damp=F
 DIIS: error= 2.47D-03 at cycle   4 NSaved=   4.
 NSaved= 4 IEnMin= 4 EnMin= -517.488811570985     IErMin= 4 ErrMin= 2.47D-03
 ErrMax= 2.47D-03  0.00D+00 EMaxC= 1.00D-01 BMatC= 5.61D-04 BMatP= 7.57D-04
 IDIUse=3 WtCom= 9.75D-01 WtEn= 2.47D-02
 Coeff-Com: -0.143D-01 0.106D+00 0.505D+00 0.404D+00
 Coeff-En:   0.000D+00 0.000D+00 0.456D+00 0.544D+00
 Coeff:     -0.139D-01 0.103D+00 0.504D+00 0.407D+00
 Gap=     0.209 Goal=   None    Shift=    0.000
 RMSDP=3.37D-04 MaxDP=7.57D-03 DE=-1.10D-04 OVMax= 7.96D-03

 Cycle   5  Pass 1  IDiag  1:
 E= -517.489331455577     Delta-E=       -0.000519884593 Rises=F Damp=F
 DIIS: error= 8.38D-05 at cycle   5 NSaved=   5.
 NSaved= 5 IEnMin= 5 EnMin= -517.489331455577     IErMin= 5 ErrMin= 8.38D-05
 ErrMax= 8.38D-05  0.00D+00 EMaxC= 1.00D-01 BMatC= 4.94D-07 BMatP= 5.61D-04
 IDIUse=1 WtCom= 1.00D+00 WtEn= 0.00D+00
 Coeff-Com: -0.310D-02 0.107D-01 0.633D-01 0.386D-01 0.890D+00
 Coeff:     -0.310D-02 0.107D-01 0.633D-01 0.386D-01 0.890D+00
 Gap=     0.209 Goal=   None    Shift=    0.000
 RMSDP=1.17D-05 MaxDP=1.63D-04 DE=-5.20D-04 OVMax= 2.29D-04

 Cycle   6  Pass 1  IDiag  1:
 E= -517.489331891883     Delta-E=       -0.000000436306 Rises=F Damp=F
 DIIS: error= 3.47D-05 at cycle   6 NSaved=   6.
 NSaved= 6 IEnMin= 6 EnMin= -517.489331891883     IErMin= 6 ErrMin= 3.47D-05
 ErrMax= 3.47D-05  0.00D+00 EMaxC= 1.00D-01 BMatC= 3.76D-08 BMatP= 4.94D-07
 IDIUse=1 WtCom= 1.00D+00 WtEn= 0.00D+00
 Coeff-Com: -0.883D-03 0.227D-02 0.148D-01 0.621D-02 0.300D+00 0.677D+00
 Coeff:     -0.883D-03 0.227D-02 0.148D-01 0.621D-02 0.300D+00 0.677D+00
 Gap=     0.209 Goal=   None    Shift=    0.000
 RMSDP=2.58D-06 MaxDP=3.24D-05 DE=-4.36D-07 OVMax= 6.29D-05

 Cycle   7  Pass 1  IDiag  1:
 E= -517.489331929979     Delta-E=       -0.000000038096 Rises=F Damp=F
 DIIS: error= 3.75D-06 at cycle   7 NSaved=   7.
 NSaved= 7 IEnMin= 7 EnMin= -517.489331929979     IErMin= 7 ErrMin= 3.75D-06
 ErrMax= 3.75D-06  0.00D+00 EMaxC= 1.00D-01 BMatC= 3.42D-10 BMatP= 3.76D-08
 IDIUse=1 WtCom= 1.00D+00 WtEn= 0.00D+00
 Coeff-Com: -0.727D-04 0.137D-03 0.122D-02 0.383D-03 0.312D-01 0.115D+00
 Coeff-Com:  0.852D+00
 Coeff:     -0.727D-04 0.137D-03 0.122D-02 0.383D-03 0.312D-01 0.115D+00
 Coeff:      0.852D+00
 Gap=     0.209 Goal=   None    Shift=    0.000
 RMSDP=3.21D-07 MaxDP=4.01D-06 DE=-3.81D-08 OVMax= 8.07D-06

 Cycle   8  Pass 1  IDiag  1:
 E= -517.489331930302     Delta-E=       -0.000000000323 Rises=F Damp=F
 DIIS: error= 1.06D-06 at cycle   8 NSaved=   8.
 NSaved= 8 IEnMin= 8 EnMin= -517.489331930302     IErMin= 8 ErrMin= 1.06D-06
 ErrMax= 1.06D-06  0.00D+00 EMaxC= 1.00D-01 BMatC= 4.94D-11 BMatP= 3.42D-10
 IDIUse=1 WtCom= 1.00D+00 WtEn= 0.00D+00
 Coeff-Com:  0.140D-04-0.513D-04-0.221D-03-0.876D-04-0.232D-02 0.108D-01
 Coeff-Com:  0.312D+00 0.680D+00
 Coeff:      0.140D-04-0.513D-04-0.221D-03-0.876D-04-0.232D-02 0.108D-01
 Coeff:      0.312D+00 0.680D+00
 Gap=     0.209 Goal=   None    Shift=    0.000
 RMSDP=1.05D-07 MaxDP=1.30D-06 DE=-3.23D-10 OVMax= 2.62D-06

 Cycle   9  Pass 1  IDiag  1:
 E= -517.489331930355     Delta-E=       -0.000000000054 Rises=F Damp=F
 DIIS: error= 4.53D-08 at cycle   9 NSaved=   9.
 NSaved= 9 IEnMin= 9 EnMin= -517.489331930355     IErMin= 9 ErrMin= 4.53D-08
 ErrMax= 4.53D-08  0.00D+00 EMaxC= 1.00D-01 BMatC= 6.49D-14 BMatP= 4.94D-11
 IDIUse=1 WtCom= 1.00D+00 WtEn= 0.00D+00
 Coeff-Com:  0.456D-06-0.161D-05-0.168D-04-0.142D-05-0.211D-03-0.556D-03
 Coeff-Com: -0.370D-02 0.415D-02 0.100D+01
 Coeff:      0.456D-06-0.161D-05-0.168D-04-0.142D-05-0.211D-03-0.556D-03
 Coeff:     -0.370D-02 0.415D-02 0.100D+01
 Gap=     0.209 Goal=   None    Shift=    0.000
 RMSDP=6.21D-09 MaxDP=1.22D-07 DE=-5.35D-11 OVMax= 1.02D-07

 Error on total polarization charges =  0.01127
 SCF Done:  E(RB-P86) =  -517.489331930     A.U. after    9 cycles
            NFock=  9  Conv=0.62D-08     -V/T= 2.0033
 KE= 5.157866281516D+02 PE=-1.326307188855D+03 EE= 2.441622407949D+02
 Leave Link  502 at Sat Aug 21 09:32:16 2021, MaxMem=   104857600 cpu:              37.8 elap:               1.7
 (Enter /sw/arch/RedHatEnterpriseServer7/EB_production/2020/software/Gaussian/g16.c01/l601.exe)
 Copying SCF densities to generalized density rwf, IOpCl= 0 IROHF=0.

 **********************************************************************

            Population analysis using the SCF Density.

 **********************************************************************

 Orbital symmetries:
       Occupied  (A) (A) (A) (A) (A) (A) (A) (A) (A) (A) (A) (A)
                 (A) (A)
       Virtual   (A) (A) (A) (A) (A) (A) (A) (A) (A) (A) (A) (A)
                 (A) (A) (A) (A) (A) (A) (A) (A) (A) (A) (A) (A)
                 (A) (A) (A) (A) (A) (A) (A) (A) (A) (A) (A) (A)
                 (A) (A) (A) (A) (A) (A) (A) (A) (A) (A) (A) (A)
                 (A) (A) (A)
 The electronic state is 1-A.
 Alpha  occ. eigenvalues -- -100.65138 -14.10562  -9.09034  -6.90946  -6.90795
 Alpha  occ. eigenvalues --   -6.90795  -0.89877  -0.64461  -0.51157  -0.51151
 Alpha  occ. eigenvalues --   -0.50214  -0.22806  -0.21795  -0.21795
 Alpha virt. eigenvalues --   -0.00892   0.05856   0.05859   0.12487   0.21507
 Alpha virt. eigenvalues --    0.21630   0.21633   0.32763   0.35653   0.36057
 Alpha virt. eigenvalues --    0.36059   0.42241   0.42243   0.43872   0.60142
 Alpha virt. eigenvalues --    0.74674   0.79050   0.79051   0.79703   0.79703
 Alpha virt. eigenvalues --    0.95866   0.99125   0.99127   1.42227   1.43902
 Alpha virt. eigenvalues --    1.43911   1.49098   1.49104   1.54728   1.81062
 Alpha virt. eigenvalues --    1.81084   1.81085   1.86216   2.22272   2.22276
 Alpha virt. eigenvalues --    2.26007   2.29362   2.29402   2.31299   2.39936
 Alpha virt. eigenvalues --    2.39943   2.42833   2.53084   2.64740   2.64741
 Alpha virt. eigenvalues --    2.89637   3.69169   3.69173   3.74139  24.19820
 Alpha virt. eigenvalues --   31.13545
          Condensed to atoms (all electrons):
               1          2          3          4          5          6
     1  Cl  17.781150  -0.099044   0.003499   0.003499   0.145446   0.003497
     2  N   -0.099044   6.115872   0.344580   0.344580   0.274264   0.344581
     3  H    0.003499   0.344580   0.357566  -0.009114  -0.003940  -0.009107
     4  H    0.003499   0.344580  -0.009114   0.357566  -0.003940  -0.009107
     5  H    0.145446   0.274264  -0.003940  -0.003940   0.378852  -0.003933
     6  H    0.003497   0.344581  -0.009107  -0.009107  -0.003933   0.357468
 Mulliken charges:
               1
     1  Cl  -0.838048
     2  N   -0.324833
     3  H    0.316515
     4  H    0.316515
     5  H    0.213250
     6  H    0.316600
 Sum of Mulliken charges =  -0.00000
 Mulliken charges with hydrogens summed into heavy atoms:
               1
     1  Cl  -0.838048
     2  N    0.838048
 Electronic spatial extent (au):  <R**2>=            275.3301
 Charge=             -0.0000 electrons
 Dipole moment (field-independent basis, Debye):
    X=             12.9508    Y=             -0.0004    Z=              0.0000  Tot=             12.9508
 Quadrupole moment (field-independent basis, Debye-Ang):
   XX=            -11.3907   YY=            -20.3313   ZZ=            -20.3330
   XY=             -0.0002   XZ=              0.0000   YZ=              0.0000
 Traceless Quadrupole moment (field-independent basis, Debye-Ang):
   XX=              5.9610   YY=             -2.9797   ZZ=             -2.9813
   XY=             -0.0002   XZ=              0.0000   YZ=              0.0000
 Octapole moment (field-independent basis, Debye-Ang**2):
  XXX=             59.6243  YYY=              1.4757  ZZZ=              0.0030  XYY=             11.0878
  XXY=              0.0013  XXZ=             -0.0000  XZZ=             11.0834  YZZ=             -1.4767
  YYZ=             -0.0030  XYZ=              0.0000
 Hexadecapole moment (field-independent basis, Debye-Ang**3):
 XXXX=           -231.0620 YYYY=            -27.4797 ZZZZ=            -27.4806 XXXY=              0.0069
 XXXZ=             -0.0000 YYYX=              3.3430 YYYZ=              0.0000 ZZZX=              0.0068
 ZZZY=             -0.0000 XXYY=            -43.9116 XXZZ=            -43.9232 YYZZ=             -9.1593
 XXYZ=              0.0000 YYXZ=             -0.0068 ZZXY=             -3.3440
 N-N= 4.886898797798D+01 E-N=-1.326307189174D+03  KE= 5.157866281516D+02
 No NMR shielding tensors so no spin-rotation constants.
 Leave Link  601 at Sat Aug 21 09:32:16 2021, MaxMem=   104857600 cpu:               3.2 elap:               0.2
 (Enter /sw/arch/RedHatEnterpriseServer7/EB_production/2020/software/Gaussian/g16.c01/l701.exe)
 ... and contract with generalized density number  0.
 Compute integral first derivatives.
 R6Disp: Adding Grimme-D3 dispersion energy 1st derivatives to the gradient.
 D1PCM: PCM CHGder 1st derivatives, ID1Alg=3 FixD1E=F DoIter=F DoCFld=F I1PDM=0.
 GePol: Maximum number of non-zero 1st derivatives   =     297
 Leave Link  701 at Sat Aug 21 09:32:17 2021, MaxMem=   104857600 cpu:              11.6 elap:               0.5
 (Enter /sw/arch/RedHatEnterpriseServer7/EB_production/2020/software/Gaussian/g16.c01/l702.exe)
 L702 exits ... SP integral derivatives will be done elsewhere.
 Leave Link  702 at Sat Aug 21 09:32:17 2021, MaxMem=   104857600 cpu:               0.4 elap:               0.0
 (Enter /sw/arch/RedHatEnterpriseServer7/EB_production/2020/software/Gaussian/g16.c01/l703.exe)
 Integral derivatives from FoFJK, PRISM(SPDF).
 Compute integral first derivatives, UseDBF=F ICtDFT=           0.
 Calling FoFJK, ICntrl=      2527 FMM=F ISym2X=0 I1Cent= 0 IOpClX= 0 NMat=1 NMatS=1 NMatT=0.
 FoFJK:  IHMeth= 1 ICntrl=    2527 DoSepK=F KAlg= 0 I1Cent=           0 FoldK=F
 IRaf=         0 NMat=       1 IRICut=       1 DoRegI=T DoRafI=F ISym2E= 0 IDoP0=0 IntGTp=1.
 FoFCou: FMM=F IPFlag=           0 FMFlag=      100000 FMFlg1=         800
         NFxFlg=           0 DoJE=F BraDBF=F KetDBF=F FulRan=T
         wScrn=  0.000000 ICntrl=      2527 IOpCl=  0 I1Cent=           0 NGrid=           0
         NMat0=    1 NMatS0=      1 NMatT0=    0 NMatD0=    1 NMtDS0=    0 NMtDT0=    0
 Symmetry not used in FoFCou.
 Leave Link  703 at Sat Aug 21 09:32:17 2021, MaxMem=   104857600 cpu:               6.1 elap:               0.3
 (Enter /sw/arch/RedHatEnterpriseServer7/EB_production/2020/software/Gaussian/g16.c01/l716.exe)
 Dipole        = 5.09522793D+00-1.45747090D-04 6.48625084D-07
 ***** Axes restored to original set *****
 -------------------------------------------------------------------
 Center     Atomic                   Forces (Hartrees/Bohr)
 Number     Number              X              Y              Z
 -------------------------------------------------------------------
      1       17           0.000029475   -0.000648512    0.000226179
      2        7           0.001619299   -0.030422255    0.010813546
      3        1           0.012206852    0.002079638   -0.005670738
      4        1          -0.002293119    0.007323095    0.011251853
      5        1          -0.001139046    0.021891413   -0.007759014
      6        1          -0.010423462   -0.000223379   -0.008861826
 -------------------------------------------------------------------
 Cartesian Forces:  Max     0.030422255 RMS     0.010915038
 Leave Link  716 at Sat Aug 21 09:32:18 2021, MaxMem=   104857600 cpu:               0.6 elap:               0.0
 (Enter /sw/arch/RedHatEnterpriseServer7/EB_production/2020/software/Gaussian/g16.c01/l103.exe)

 GradGradGradGradGradGradGradGradGradGradGradGradGradGradGradGradGradGrad
 Berny optimization.
 FormGI is forming the generalized inverse of G from B-inverse, IUseBI=4.
 Internal  Forces:  Max     0.022566220 RMS     0.007923223
 Search for a local minimum.
 Step number   1 out of a maximum of   27
 All quantities printed in internal units (Hartrees-Bohrs-Radians)
 RMS Force = .79232D-02 SwitMx=.10000D-02 MixMth= 1
 Mixed Optimization -- RFO/linear search
 Second derivative matrix not updated -- first step.
 The second derivative matrix:
                          R1        R2        R3        R4        R5
           R1           0.05712
           R2           0.00000   0.40659
           R3           0.00000   0.00000   0.40659
           R4           0.00000   0.00000   0.00000   0.40659
           R5           0.00000   0.00000   0.00000   0.00000   0.40664
           A1           0.00000   0.00000   0.00000   0.00000   0.00000
           A2           0.00000   0.00000   0.00000   0.00000   0.00000
           A3           0.00000   0.00000   0.00000   0.00000   0.00000
           A4           0.00000   0.00000   0.00000   0.00000   0.00000
           A5           0.00000   0.00000   0.00000   0.00000   0.00000
           A6           0.00000   0.00000   0.00000   0.00000   0.00000
           A7           0.00000   0.00000   0.00000   0.00000   0.00000
           A8           0.00000   0.00000   0.00000   0.00000   0.00000
           D1           0.00000   0.00000   0.00000   0.00000   0.00000
           D2           0.00000   0.00000   0.00000   0.00000   0.00000
           D3           0.00000   0.00000   0.00000   0.00000   0.00000
           D4           0.00000   0.00000   0.00000   0.00000   0.00000
                          A1        A2        A3        A4        A5
           A1           0.16000
           A2           0.00000   0.16000
           A3           0.00000   0.00000   0.16000
           A4           0.00000   0.00000   0.00000   0.16000
           A5           0.00000   0.00000   0.00000   0.00000   0.16000
           A6           0.00000   0.00000   0.00000   0.00000   0.00000
           A7           0.00000   0.00000   0.00000   0.00000   0.00000
           A8           0.00000   0.00000   0.00000   0.00000   0.00000
           D1           0.00000   0.00000   0.00000   0.00000   0.00000
           D2           0.00000   0.00000   0.00000   0.00000   0.00000
           D3           0.00000   0.00000   0.00000   0.00000   0.00000
           D4           0.00000   0.00000   0.00000   0.00000   0.00000
                          A6        A7        A8        D1        D2
           A6           0.16000
           A7           0.00000   0.00441
           A8           0.00000   0.00000   0.00441
           D1           0.00000   0.00000   0.00000   0.00441
           D2           0.00000   0.00000   0.00000   0.00000   0.00441
           D3           0.00000   0.00000   0.00000   0.00000   0.00000
           D4           0.00000   0.00000   0.00000   0.00000   0.00000
                          D3        D4
           D3           0.00441
           D4           0.00000   0.00441
 ITU=  0
     Eigenvalues ---    0.00441   0.00441   0.05227   0.05712   0.05851
     Eigenvalues ---    0.08743   0.16000   0.16000   0.40659   0.40659
     Eigenvalues ---    0.40659   0.40664
 RFO step:  Lambda=-2.66412702D-03 EMin= 4.40771860D-03
 Linear search not attempted -- first point.
 Iteration  1 RMS(Cart)=  0.02115773 RMS(Int)=  0.00011378
 Iteration  2 RMS(Cart)=  0.00006647 RMS(Int)=  0.00004213
 Iteration  3 RMS(Cart)=  0.00000001 RMS(Int)=  0.00004213
 ITry= 1 IFail=0 DXMaxC= 3.98D-02 DCOld= 1.00D+10 DXMaxT= 3.00D-01 DXLimC= 3.00D+00 Rises=F
 Variable       Old X    -DE/DX   Delta X   Delta X   Delta X     New X
                                 (Linear)    (Quad)   (Total)
    R1        3.77945  -0.00069   0.00000  -0.01150  -0.01150   3.76795
    R2        1.97367  -0.01355   0.00000  -0.03311  -0.03311   1.94056
    R3        1.97367  -0.01355   0.00000  -0.03311  -0.03311   1.94056
    R4        1.97367   0.02257   0.00000   0.05514   0.05514   2.02881
    R5        1.97361  -0.01362   0.00000  -0.03327  -0.03327   1.94034
    A1        1.91041  -0.00018   0.00000  -0.00707  -0.00718   1.90323
    A2        1.91041   0.00052   0.00000   0.00777   0.00779   1.91820
    A3        1.91086  -0.00080   0.00000  -0.00798  -0.00805   1.90281
    A4        1.91041   0.00052   0.00000   0.00777   0.00779   1.91820
    A5        1.91086  -0.00080   0.00000  -0.00798  -0.00804   1.90281
    A6        1.91086   0.00073   0.00000   0.00750   0.00751   1.91836
    A7        3.14159  -0.00001   0.00000  -0.00173  -0.00173   3.13986
    A8        3.14159  -0.00001   0.00000  -0.00172  -0.00172   3.13988
    D1       -2.09385  -0.00042   0.00000  -0.00085  -0.00082  -2.09467
    D2        2.09440  -0.00120   0.00000  -0.01845  -0.01837   2.07602
    D3       -2.09439  -0.00060   0.00000  -0.00922  -0.00919  -2.10358
    D4        2.09440   0.00060   0.00000   0.00922   0.00919   2.10358
         Item               Value     Threshold  Converged?
 Maximum Force            0.022566     0.000450     NO 
 RMS     Force            0.007923     0.000300     NO 
 Maximum Displacement     0.039774     0.001800     NO 
 RMS     Displacement     0.021135     0.001200     NO 
 Predicted change in Energy=-1.341509D-03
 Lowest energy point so far.  Saving SCF results.
 GradGradGradGradGradGradGradGradGradGradGradGradGradGradGradGradGradGrad

 Leave Link  103 at Sat Aug 21 09:32:18 2021, MaxMem=   104857600 cpu:               0.4 elap:               0.0
 (Enter /sw/arch/RedHatEnterpriseServer7/EB_production/2020/software/Gaussian/g16.c01/l202.exe)
                          Input orientation:                          
 ---------------------------------------------------------------------
 Center     Atomic      Atomic             Coordinates (Angstroms)
 Number     Number       Type             X           Y           Z
 ---------------------------------------------------------------------
      1         17           0       -1.266521    3.074713   -1.529615
      2          7           0       -1.110999    0.188354   -0.502781
      3          1           0       -1.996159   -0.068698   -0.050082
      4          1           0       -0.936694   -0.452477   -1.286027
      5          1           0       -1.164066    1.198684   -0.861992
      6          1           0       -0.348242    0.099103    0.178778
 ---------------------------------------------------------------------
                    Distance matrix (angstroms):
                    1          2          3          4          5
     1  Cl   0.000000
     2  N    3.067514   0.000000
     3  H    3.549988   1.026898   0.000000
     4  H    3.550942   1.026898   1.672516   0.000000
     5  H    1.993916   1.073600   1.719835   1.719836   0.000000
     6  H    3.551914   1.026785   1.672174   1.672175   1.719840
                    6
     6  H    0.000000
 Stoichiometry    ClH4N
 Framework group  C1[X(ClH4N)]
 Deg. of freedom    12
 Full point group                 C1      NOp   1
 RotChk:  IX=1 Diff= 2.00D+00
 Largest Abelian subgroup         C1      NOp   1
 Largest concise Abelian subgroup C1      NOp   1
                         Standard orientation:                         
 ---------------------------------------------------------------------
 Center     Atomic      Atomic             Coordinates (Angstroms)
 Number     Number       Type             X           Y           Z
 ---------------------------------------------------------------------
      1         17           0       -1.204215    0.000002   -0.000000
      2          7           0        1.863299   -0.000001    0.000009
      3          1           0        2.211831    0.835812    0.484221
      4          1           0        2.212932   -0.836702    0.481889
      5          1           0        0.789700   -0.000706   -0.001182
      6          1           0        2.214101    0.001576   -0.964989
 ---------------------------------------------------------------------
 Rotational constants (GHZ):         179.3121651           4.4023653           4.4023359
 Leave Link  202 at Sat Aug 21 09:32:18 2021, MaxMem=   104857600 cpu:               0.4 elap:               0.0
 (Enter /sw/arch/RedHatEnterpriseServer7/EB_production/2020/software/Gaussian/g16.c01/l301.exe)
 Standard basis: TZVP (5D, 7F)
 Ernie: Thresh=  0.10000D-02 Tol=  0.10000D-05 Strict=F.
 There are    67 symmetry adapted cartesian basis functions of A   symmetry.
 There are    65 symmetry adapted basis functions of A   symmetry.
    65 basis functions,   114 primitive gaussians,    67 cartesian basis functions
    14 alpha electrons       14 beta electrons
       nuclear repulsion energy        48.7853944239 Hartrees.
 IExCor=  404 DFT=T Ex=B Corr=P86 ExCW=0 ScaHFX=  0.000000
 ScaDFX=  1.000000  1.000000  1.000000  1.000000 ScalE2=  1.000000  1.000000
 IRadAn=      5 IRanWt=     -1 IRanGd=            0 ICorTp=0 IEmpDi=131
 NAtoms=    6 NActive=    6 NUniq=    6 SFac= 1.00D+00 NAtFMM=   60 NAOKFM=F Big=F
 Integral buffers will be    131072 words long.
 Raffenetti 2 integral format.
 Two-electron integral symmetry is turned on.
 R6Disp:  Grimme-D3 Dispersion energy=       -0.0018368787 Hartrees.
 Nuclear repulsion after empirical dispersion term =       48.7835575452 Hartrees.
 ------------------------------------------------------------------------------
 Polarizable Continuum Model (PCM)
 =================================
 Model                : PCM.
 Atomic radii         : UFF (Universal Force Field).
 Polarization charges : Total charges.
 Charge compensation  : None.
 Solution method      : On-the-fly selection.
 Cavity type          : Scaled VdW (van der Waals Surface) (Alpha=1.100).
 Cavity algorithm     : GePol (No added spheres)
                        Default sphere list used, NSphG=    6.
                        Lebedev-Laikov grids with approx.  5.0 points / Ang**2.
                        Smoothing algorithm: York/Karplus (Gamma=1.0000).
                        Polarization charges: spherical gaussians, with
                                              point-specific exponents (IZeta= 3).
                        Self-potential: point-specific (ISelfS= 7).
                        Self-field    : sphere-specific E.n sum rule (ISelfD= 2).
 1st derivatives      : Analytical E(r).r(x)/FMM algorithm (CHGder, D1EAlg=3).
                        Cavity 1st derivative terms included.
 Solvent              : Water, Eps=  78.355300 Eps(inf)=   1.777849
 ------------------------------------------------------------------------------
 Spheres list:
 ISph  on   Nord     Re0    Alpha      Xe            Ye            Ze
    1  Cl      1    1.9735  1.100     -1.204215      0.000002     -0.000000
    2   N      2    1.8300  1.100      1.863299     -0.000001      0.000009
    3   H      3    1.4430  1.100      2.211831      0.835812      0.484221
    4   H      4    1.4430  1.100      2.212932     -0.836702      0.481889
    5   H      5    1.4430  1.100      0.789700     -0.000706     -0.001182
    6   H      6    1.4430  1.100      2.214101      0.001576     -0.964989
 ------------------------------------------------------------------------------
 GePol: Number of generator spheres                  =       6
 GePol: Total number of spheres                      =       6
 GePol: Number of exposed spheres                    =       6 (100.00%)
 GePol: Number of points                             =     707
 GePol: Average weight of points                     =       0.15
 GePol: Minimum weight of points                     =   0.20D-10
 GePol: Maximum weight of points                     =    0.21616
 GePol: Number of points with low weight             =      22
 GePol: Fraction of low-weight points (<1% of avg)   =       3.11%
 GePol: Cavity surface area                          =    106.934 Ang**2
 GePol: Cavity volume                                =     83.806 Ang**3
 Leave Link  301 at Sat Aug 21 09:32:18 2021, MaxMem=   104857600 cpu:               1.3 elap:               0.1
 (Enter /sw/arch/RedHatEnterpriseServer7/EB_production/2020/software/Gaussian/g16.c01/l302.exe)
 NPDir=0 NMtPBC=     1 NCelOv=     1 NCel=       1 NClECP=     1 NCelD=      1
         NCelK=      1 NCelE2=     1 NClLst=     1 CellRange=     0.0.
 One-electron integrals computed using PRISM.
 One-electron integral symmetry used in STVInt
 NBasis=    65 RedAO= T EigKep=  4.06D-03  NBF=    65
 NBsUse=    65 1.00D-06 EigRej= -1.00D+00 NBFU=    65
 Precomputing XC quadrature grid using
 IXCGrd= 4 IRadAn=           5 IRanWt=          -1 IRanGd=           0 AccXCQ= 0.00D+00.
 Generated NRdTot=       0 NPtTot=           0 NUsed=           0 NTot=          32
 NSgBfM=    67    67    67    67    67 MxSgAt=     6 MxSgA2=     6.
 Leave Link  302 at Sat Aug 21 09:32:18 2021, MaxMem=   104857600 cpu:               4.1 elap:               0.2
 (Enter /sw/arch/RedHatEnterpriseServer7/EB_production/2020/software/Gaussian/g16.c01/l303.exe)
 DipDrv:  MaxL=1.
 Leave Link  303 at Sat Aug 21 09:32:18 2021, MaxMem=   104857600 cpu:               0.4 elap:               0.0
 (Enter /sw/arch/RedHatEnterpriseServer7/EB_production/2020/software/Gaussian/g16.c01/l401.exe)
 Initial guess from the checkpoint file:  "NLXLAEXVIDQMFP-UHFFFAOYSA-N.chk"
 B after Tr=     0.000000   -0.000000    0.000000
         Rot=    0.707840    0.706373    0.000024    0.000004 Ang=  89.88 deg.
 Guess basis will be translated and rotated to current coordinates.
 JPrj=2 DoOrth=T DoCkMO=T.
 Generating alternative initial guess.
 ExpMin= 1.03D-01 ExpMax= 6.95D+04 ExpMxC= 2.37D+03 IAcc=3 IRadAn=         5 AccDes= 0.00D+00
 Harris functional with IExCor=  404 and IRadAn=       5 diagonalized for initial guess.
 HarFok:  IExCor=  404 AccDes= 0.00D+00 IRadAn=         5 IDoV= 1 UseB2=F ITyADJ=14
 ICtDFT=  3500011 ScaDFX=  1.000000  1.000000  1.000000  1.000000
 FoFCou: FMM=F IPFlag=           0 FMFlag=      100000 FMFlg1=           0
         NFxFlg=           0 DoJE=T BraDBF=F KetDBF=T FulRan=T
         wScrn=  0.000000 ICntrl=       500 IOpCl=  0 I1Cent=   200000004 NGrid=           0
         NMat0=    1 NMatS0=      1 NMatT0=    0 NMatD0=    1 NMtDS0=    0 NMtDT0=    0
 Petite list used in FoFCou.
 Harris En= -517.430271397674    
 Leave Link  401 at Sat Aug 21 09:32:18 2021, MaxMem=   104857600 cpu:               7.4 elap:               0.4
 (Enter /sw/arch/RedHatEnterpriseServer7/EB_production/2020/software/Gaussian/g16.c01/l502.exe)
 Keep J ints in memory in canonical form, NReq=23649785.
 FoFCou: FMM=F IPFlag=           0 FMFlag=           0 FMFlg1=           0
         NFxFlg=           0 DoJE=F BraDBF=F KetDBF=F FulRan=T
         wScrn=  0.000000 ICntrl=       600 IOpCl=  0 I1Cent=           0 NGrid=           0
         NMat0=    1 NMatS0=   2145 NMatT0=    0 NMatD0=    1 NMtDS0=    0 NMtDT0=    0
 Symmetry not used in FoFCou.
 Two-electron integral symmetry not used.
 Closed shell SCF:
 Using DIIS extrapolation, IDIIS=  1040.
 NGot=   104857600 LenX=   102544437 LenY=   102539507
 Requested convergence on RMS density matrix=1.00D-08 within 128 cycles.
 Requested convergence on MAX density matrix=1.00D-06.
 Requested convergence on             energy=1.00D-06.
 No special actions if energy rises.

 Cycle   1  Pass 1  IDiag  1:
 Inv3:  Mode=1 IEnd=     1499547.
 Iteration    1 A*A^-1 deviation from unit magnitude is 2.66D-15 for    208.
 Iteration    1 A*A^-1 deviation from orthogonality  is 2.11D-15 for    379    111.
 Iteration    1 A^-1*A deviation from unit magnitude is 2.89D-15 for    187.
 Iteration    1 A^-1*A deviation from orthogonality  is 1.33D-15 for    400    284.
 E= -517.490457546174    
 DIIS: error= 2.96D-03 at cycle   1 NSaved=   1.
 NSaved= 1 IEnMin= 1 EnMin= -517.490457546174     IErMin= 1 ErrMin= 2.96D-03
 ErrMax= 2.96D-03  0.00D+00 EMaxC= 1.00D-01 BMatC= 4.24D-04 BMatP= 4.24D-04
 IDIUse=3 WtCom= 9.70D-01 WtEn= 2.96D-02
 Coeff-Com:  0.100D+01
 Coeff-En:   0.100D+01
 Coeff:      0.100D+01
 Gap=     0.423 Goal=   None    Shift=    0.000
 GapD=    0.423 DampG=2.000 DampE=1.000 DampFc=2.0000 IDamp=-1.
 RMSDP=3.08D-04 MaxDP=2.78D-03              OVMax= 7.84D-03

 Cycle   2  Pass 1  IDiag  1:
 E= -517.490774894372     Delta-E=       -0.000317348199 Rises=F Damp=F
 DIIS: error= 1.43D-03 at cycle   2 NSaved=   2.
 NSaved= 2 IEnMin= 2 EnMin= -517.490774894372     IErMin= 2 ErrMin= 1.43D-03
 ErrMax= 1.43D-03  0.00D+00 EMaxC= 1.00D-01 BMatC= 6.66D-05 BMatP= 4.24D-04
 IDIUse=3 WtCom= 9.86D-01 WtEn= 1.43D-02
 Coeff-Com:  0.214D+00 0.786D+00
 Coeff-En:   0.000D+00 0.100D+01
 Coeff:      0.211D+00 0.789D+00
 Gap=     0.215 Goal=   None    Shift=    0.000
 RMSDP=1.10D-04 MaxDP=1.98D-03 DE=-3.17D-04 OVMax= 4.36D-03

 Cycle   3  Pass 1  IDiag  1:
 E= -517.490787043880     Delta-E=       -0.000012149508 Rises=F Damp=F
 DIIS: error= 1.33D-03 at cycle   3 NSaved=   3.
 NSaved= 3 IEnMin= 3 EnMin= -517.490787043880     IErMin= 3 ErrMin= 1.33D-03
 ErrMax= 1.33D-03  0.00D+00 EMaxC= 1.00D-01 BMatC= 5.62D-05 BMatP= 6.66D-05
 IDIUse=3 WtCom= 9.87D-01 WtEn= 1.33D-02
 Coeff-Com:  0.453D-01 0.475D+00 0.479D+00
 Coeff-En:   0.000D+00 0.442D+00 0.558D+00
 Coeff:      0.447D-01 0.475D+00 0.480D+00
 Gap=     0.215 Goal=   None    Shift=    0.000
 RMSDP=5.47D-05 MaxDP=9.91D-04 DE=-1.21D-05 OVMax= 1.86D-03

 Cycle   4  Pass 1  IDiag  1:
 E= -517.490828633262     Delta-E=       -0.000041589381 Rises=F Damp=F
 DIIS: error= 1.71D-04 at cycle   4 NSaved=   4.
 NSaved= 4 IEnMin= 4 EnMin= -517.490828633262     IErMin= 4 ErrMin= 1.71D-04
 ErrMax= 1.71D-04  0.00D+00 EMaxC= 1.00D-01 BMatC= 1.25D-06 BMatP= 5.62D-05
 IDIUse=3 WtCom= 9.98D-01 WtEn= 1.71D-03
 Coeff-Com:  0.144D-02 0.145D+00 0.203D+00 0.652D+00
 Coeff-En:   0.000D+00 0.000D+00 0.000D+00 0.100D+01
 Coeff:      0.144D-02 0.144D+00 0.202D+00 0.652D+00
 Gap=     0.215 Goal=   None    Shift=    0.000
 RMSDP=1.38D-05 MaxDP=1.95D-04 DE=-4.16D-05 OVMax= 3.75D-04

 Cycle   5  Pass 1  IDiag  1:
 E= -517.490829674633     Delta-E=       -0.000001041371 Rises=F Damp=F
 DIIS: error= 2.55D-05 at cycle   5 NSaved=   5.
 NSaved= 5 IEnMin= 5 EnMin= -517.490829674633     IErMin= 5 ErrMin= 2.55D-05
 ErrMax= 2.55D-05  0.00D+00 EMaxC= 1.00D-01 BMatC= 4.69D-08 BMatP= 1.25D-06
 IDIUse=1 WtCom= 1.00D+00 WtEn= 0.00D+00
 Coeff-Com: -0.241D-03 0.528D-01 0.763D-01 0.299D+00 0.572D+00
 Coeff:     -0.241D-03 0.528D-01 0.763D-01 0.299D+00 0.572D+00
 Gap=     0.215 Goal=   None    Shift=    0.000
 RMSDP=4.51D-06 MaxDP=1.02D-04 DE=-1.04D-06 OVMax= 1.09D-04

 Cycle   6  Pass 1  IDiag  1:
 E= -517.490829718433     Delta-E=       -0.000000043801 Rises=F Damp=F
 DIIS: error= 6.91D-06 at cycle   6 NSaved=   6.
 NSaved= 6 IEnMin= 6 EnMin= -517.490829718433     IErMin= 6 ErrMin= 6.91D-06
 ErrMax= 6.91D-06  0.00D+00 EMaxC= 1.00D-01 BMatC= 3.33D-09 BMatP= 4.69D-08
 IDIUse=1 WtCom= 1.00D+00 WtEn= 0.00D+00
 Coeff-Com: -0.237D-03 0.559D-02 0.829D-02 0.540D-01 0.249D+00 0.684D+00
 Coeff:     -0.237D-03 0.559D-02 0.829D-02 0.540D-01 0.249D+00 0.684D+00
 Gap=     0.215 Goal=   None    Shift=    0.000
 RMSDP=9.33D-07 MaxDP=2.27D-05 DE=-4.38D-08 OVMax= 1.64D-05

 Cycle   7  Pass 1  IDiag  1:
 E= -517.490829721438     Delta-E=       -0.000000003005 Rises=F Damp=F
 DIIS: error= 9.33D-07 at cycle   7 NSaved=   7.
 NSaved= 7 IEnMin= 7 EnMin= -517.490829721438     IErMin= 7 ErrMin= 9.33D-07
 ErrMax= 9.33D-07  0.00D+00 EMaxC= 1.00D-01 BMatC= 2.35D-11 BMatP= 3.33D-09
 IDIUse=1 WtCom= 1.00D+00 WtEn= 0.00D+00
 Coeff-Com: -0.855D-04 0.149D-02 0.232D-02 0.157D-01 0.824D-01 0.224D+00
 Coeff-Com:  0.674D+00
 Coeff:     -0.855D-04 0.149D-02 0.232D-02 0.157D-01 0.824D-01 0.224D+00
 Coeff:      0.674D+00
 Gap=     0.215 Goal=   None    Shift=    0.000
 RMSDP=6.93D-08 MaxDP=7.94D-07 DE=-3.00D-09 OVMax= 2.09D-06

 Cycle   8  Pass 1  IDiag  1:
 E= -517.490829721464     Delta-E=       -0.000000000026 Rises=F Damp=F
 DIIS: error= 1.41D-07 at cycle   8 NSaved=   8.
 NSaved= 8 IEnMin= 8 EnMin= -517.490829721464     IErMin= 8 ErrMin= 1.41D-07
 ErrMax= 1.41D-07  0.00D+00 EMaxC= 1.00D-01 BMatC= 8.13D-13 BMatP= 2.35D-11
 IDIUse=1 WtCom= 1.00D+00 WtEn= 0.00D+00
 Coeff-Com: -0.429D-05 0.343D-04 0.981D-04 0.467D-03 0.577D-02 0.123D-01
 Coeff-Com:  0.162D+00 0.819D+00
 Coeff:     -0.429D-05 0.343D-04 0.981D-04 0.467D-03 0.577D-02 0.123D-01
 Coeff:      0.162D+00 0.819D+00
 Gap=     0.215 Goal=   None    Shift=    0.000
 RMSDP=1.39D-08 MaxDP=1.89D-07 DE=-2.59D-11 OVMax= 3.27D-07

 Cycle   9  Pass 1  IDiag  1:
 E= -517.490829721465     Delta-E=       -0.000000000001 Rises=F Damp=F
 DIIS: error= 1.05D-08 at cycle   9 NSaved=   9.
 NSaved= 9 IEnMin= 9 EnMin= -517.490829721465     IErMin= 9 ErrMin= 1.05D-08
 ErrMax= 1.05D-08  0.00D+00 EMaxC= 1.00D-01 BMatC= 1.03D-14 BMatP= 8.13D-13
 IDIUse=1 WtCom= 1.00D+00 WtEn= 0.00D+00
 Coeff-Com:  0.114D-06-0.144D-04-0.207D-04-0.125D-03-0.346D-03-0.239D-03
 Coeff-Com:  0.121D-01 0.112D+00 0.877D+00
 Coeff:      0.114D-06-0.144D-04-0.207D-04-0.125D-03-0.346D-03-0.239D-03
 Coeff:      0.121D-01 0.112D+00 0.877D+00
 Gap=     0.215 Goal=   None    Shift=    0.000
 RMSDP=1.91D-09 MaxDP=3.74D-08 DE=-5.68D-13 OVMax= 4.44D-08

 Error on total polarization charges =  0.01117
 SCF Done:  E(RB-P86) =  -517.490829721     A.U. after    9 cycles
            NFock=  9  Conv=0.19D-08     -V/T= 2.0032
 KE= 5.158245866513D+02 PE=-1.326129051382D+03 EE= 2.440300774638D+02
 Leave Link  502 at Sat Aug 21 09:32:20 2021, MaxMem=   104857600 cpu:              36.3 elap:               1.6
 (Enter /sw/arch/RedHatEnterpriseServer7/EB_production/2020/software/Gaussian/g16.c01/l701.exe)
 ... and contract with generalized density number  0.
 Compute integral first derivatives.
 R6Disp: Adding Grimme-D3 dispersion energy 1st derivatives to the gradient.
 D1PCM: PCM CHGder 1st derivatives, ID1Alg=3 FixD1E=F DoIter=F DoCFld=F I1PDM=0.
 GePol: Maximum number of non-zero 1st derivatives   =     297
 Leave Link  701 at Sat Aug 21 09:32:21 2021, MaxMem=   104857600 cpu:              11.0 elap:               0.5
 (Enter /sw/arch/RedHatEnterpriseServer7/EB_production/2020/software/Gaussian/g16.c01/l702.exe)
 L702 exits ... SP integral derivatives will be done elsewhere.
 Leave Link  702 at Sat Aug 21 09:32:21 2021, MaxMem=   104857600 cpu:               0.5 elap:               0.0
 (Enter /sw/arch/RedHatEnterpriseServer7/EB_production/2020/software/Gaussian/g16.c01/l703.exe)
 Integral derivatives from FoFJK, PRISM(SPDF).
 Compute integral first derivatives, UseDBF=F ICtDFT=           0.
 Calling FoFJK, ICntrl=      2527 FMM=F ISym2X=0 I1Cent= 0 IOpClX= 0 NMat=1 NMatS=1 NMatT=0.
 FoFJK:  IHMeth= 1 ICntrl=    2527 DoSepK=F KAlg= 0 I1Cent=           0 FoldK=F
 IRaf=         0 NMat=       1 IRICut=       1 DoRegI=T DoRafI=F ISym2E= 0 IDoP0=0 IntGTp=1.
 FoFCou: FMM=F IPFlag=           0 FMFlag=      100000 FMFlg1=         800
         NFxFlg=           0 DoJE=F BraDBF=F KetDBF=F FulRan=T
         wScrn=  0.000000 ICntrl=      2527 IOpCl=  0 I1Cent=           0 NGrid=           0
         NMat0=    1 NMatS0=      1 NMatT0=    0 NMatD0=    1 NMtDS0=    0 NMtDT0=    0
 Symmetry not used in FoFCou.
 Leave Link  703 at Sat Aug 21 09:32:21 2021, MaxMem=   104857600 cpu:               5.8 elap:               0.3
 (Enter /sw/arch/RedHatEnterpriseServer7/EB_production/2020/software/Gaussian/g16.c01/l716.exe)
 Dipole        = 5.06489847D+00 1.05186858D-04 7.20207497D-05
 ***** Axes restored to original set *****
 -------------------------------------------------------------------
 Center     Atomic                   Forces (Hartrees/Bohr)
 Number     Number              X              Y              Z
 -------------------------------------------------------------------
      1       17           0.000155443   -0.002715828    0.000965089
      2        7           0.000326264   -0.005496510    0.001964016
      3        1           0.000206426    0.000182390   -0.000193573
      4        1          -0.000090157    0.000281370    0.000152546
      5        1          -0.000430154    0.007573915   -0.002685162
      6        1          -0.000167821    0.000174662   -0.000202915
 -------------------------------------------------------------------
 Cartesian Forces:  Max     0.007573915 RMS     0.002444833
 Leave Link  716 at Sat Aug 21 09:32:21 2021, MaxMem=   104857600 cpu:               0.5 elap:               0.0
 (Enter /sw/arch/RedHatEnterpriseServer7/EB_production/2020/software/Gaussian/g16.c01/l103.exe)

 GradGradGradGradGradGradGradGradGradGradGradGradGradGradGradGradGradGrad
 Berny optimization.
 Using GEDIIS/GDIIS optimizer.
 FormGI is forming the generalized inverse of G from B-inverse, IUseBI=4.
 Internal  Forces:  Max     0.005160887 RMS     0.001440785
 Search for a local minimum.
 Step number   2 out of a maximum of   27
 All quantities printed in internal units (Hartrees-Bohrs-Radians)
 RMS Force = .14408D-02 SwitMx=.10000D-02 MixMth= 1
 Mixed Optimization -- RFO/linear search
 Update second derivatives using D2CorX and points    1    2
 DE= -1.50D-03 DEPred=-1.34D-03 R= 1.12D+00
 TightC=F SS=  1.41D+00  RLast= 8.57D-02 DXNew= 5.0454D-01 2.5710D-01
 Trust test= 1.12D+00 RLast= 8.57D-02 DXMaxT set to 3.00D-01
 The second derivative matrix:
                          R1        R2        R3        R4        R5
           R1           0.05904
           R2          -0.01588   0.41357
           R3          -0.01588   0.00698   0.41358
           R4           0.02204   0.01488   0.01487   0.34699
           R5          -0.01599   0.00720   0.00721   0.01469   0.41408
           A1          -0.00045  -0.00487  -0.00487   0.00845  -0.00489
           A2           0.00085   0.00308   0.00308  -0.00627   0.00308
           A3          -0.00118  -0.00139  -0.00139   0.00413  -0.00138
           A4           0.00085   0.00312   0.00312  -0.00633   0.00313
           A5          -0.00117  -0.00143  -0.00143   0.00417  -0.00142
           A6           0.00109   0.00136   0.00136  -0.00393   0.00135
           A7          -0.00005   0.00022   0.00022  -0.00028   0.00022
           A8          -0.00002   0.00007   0.00007  -0.00008   0.00007
           D1          -0.00046   0.00276   0.00276  -0.00363   0.00278
           D2          -0.00126   0.00706   0.00706  -0.00913   0.00711
           D3          -0.00063   0.00355   0.00355  -0.00459   0.00357
           D4           0.00063  -0.00351  -0.00351   0.00455  -0.00354
                          A1        A2        A3        A4        A5
           A1           0.15951
           A2           0.00050   0.15955
           A3          -0.00049   0.00038   0.15973
           A4           0.00050  -0.00045   0.00039   0.15955
           A5          -0.00049   0.00038  -0.00028   0.00039   0.15972
           A6           0.00046  -0.00036   0.00026  -0.00036   0.00026
           A7           0.00000  -0.00001   0.00001  -0.00001   0.00001
           A8          -0.00000  -0.00000   0.00000  -0.00000   0.00000
           D1           0.00003  -0.00012   0.00019  -0.00012   0.00019
           D2           0.00006  -0.00029   0.00047  -0.00028   0.00047
           D3           0.00003  -0.00014   0.00024  -0.00014   0.00023
           D4          -0.00003   0.00014  -0.00023   0.00014  -0.00023
                          A6        A7        A8        D1        D2
           A6           0.15975
           A7          -0.00001   0.00441
           A8          -0.00000   0.00000   0.00441
           D1          -0.00017   0.00001   0.00000   0.00451
           D2          -0.00043   0.00003   0.00001   0.00028   0.00515
           D3          -0.00022   0.00001   0.00001   0.00014   0.00037
           D4           0.00022  -0.00001  -0.00001  -0.00014  -0.00037
                          D3        D4
           D3           0.00460
           D4          -0.00018   0.00459
 ITU=  1  0
 Use linear search instead of GDIIS.
     Eigenvalues ---    0.00441   0.00441   0.05208   0.05549   0.05811
     Eigenvalues ---    0.08830   0.16000   0.16009   0.34245   0.40659
     Eigenvalues ---    0.40662   0.43665
 RFO step:  Lambda=-2.22354010D-04 EMin= 4.40769757D-03
 Quartic linear search produced a step of  0.14896.
 Iteration  1 RMS(Cart)=  0.01124252 RMS(Int)=  0.00002476
 Iteration  2 RMS(Cart)=  0.00003501 RMS(Int)=  0.00000632
 Iteration  3 RMS(Cart)=  0.00000000 RMS(Int)=  0.00000632
 ITry= 1 IFail=0 DXMaxC= 3.51D-02 DCOld= 1.00D+10 DXMaxT= 3.00D-01 DXLimC= 3.00D+00 Rises=F
 Variable       Old X    -DE/DX   Delta X   Delta X   Delta X     New X
                                 (Linear)    (Quad)   (Total)
    R1        3.76795  -0.00289  -0.00171  -0.05713  -0.05884   3.70912
    R2        1.94056  -0.00031  -0.00493   0.00130  -0.00364   1.93692
    R3        1.94056  -0.00031  -0.00493   0.00130  -0.00363   1.93693
    R4        2.02881   0.00516   0.00821   0.01096   0.01918   2.04799
    R5        1.94034  -0.00028  -0.00496   0.00140  -0.00355   1.93679
    A1        1.90323  -0.00001  -0.00107   0.00088  -0.00021   1.90302
    A2        1.91820  -0.00005   0.00116  -0.00137  -0.00021   1.91799
    A3        1.90281   0.00010  -0.00120   0.00163   0.00042   1.90323
    A4        1.91820  -0.00004   0.00116  -0.00127  -0.00011   1.91809
    A5        1.90281   0.00010  -0.00120   0.00161   0.00040   1.90321
    A6        1.91836  -0.00010   0.00112  -0.00140  -0.00028   1.91808
    A7        3.13986   0.00003  -0.00026   0.00831   0.00805   3.14791
    A8        3.13988   0.00001  -0.00026   0.00185   0.00159   3.14147
    D1       -2.09467   0.00007  -0.00012   0.00057   0.00045  -2.09422
    D2        2.07602   0.00011  -0.00274   0.00296   0.00023   2.07626
    D3       -2.10358   0.00006  -0.00137   0.00153   0.00017  -2.10341
    D4        2.10358  -0.00005   0.00137  -0.00142  -0.00006   2.10352
         Item               Value     Threshold  Converged?
 Maximum Force            0.005161     0.000450     NO 
 RMS     Force            0.001441     0.000300     NO 
 Maximum Displacement     0.035112     0.001800     NO 
 RMS     Displacement     0.011242     0.001200     NO 
 Predicted change in Energy=-1.359671D-04
 Lowest energy point so far.  Saving SCF results.
 GradGradGradGradGradGradGradGradGradGradGradGradGradGradGradGradGradGrad

 Leave Link  103 at Sat Aug 21 09:32:21 2021, MaxMem=   104857600 cpu:               3.7 elap:               0.2
 (Enter /sw/arch/RedHatEnterpriseServer7/EB_production/2020/software/Gaussian/g16.c01/l202.exe)
                          Input orientation:                          
 ---------------------------------------------------------------------
 Center     Atomic      Atomic             Coordinates (Angstroms)
 Number     Number       Type             X           Y           Z
 ---------------------------------------------------------------------
      1         17           0       -1.262012    3.056132   -1.523927
      2          7           0       -1.111696    0.189695   -0.503049
      3          1           0       -1.993872   -0.070241   -0.050532
      4          1           0       -0.936724   -0.448535   -1.285752
      5          1           0       -1.169276    1.209721   -0.864631
      6          1           0       -0.349100    0.102907    0.176173
 ---------------------------------------------------------------------
                    Distance matrix (angstroms):
                    1          2          3          4          5
     1  Cl   0.000000
     2  N    3.046515   0.000000
     3  H    3.532807   1.024974   0.000000
     4  H    3.527780   1.024977   1.669262   0.000000
     5  H    1.962780   1.083749   1.726563   1.726626   0.000000
     6  H    3.527788   1.024904   1.669326   1.669316   1.726557
                    6
     6  H    0.000000
 Stoichiometry    ClH4N
 Framework group  C1[X(ClH4N)]
 Deg. of freedom    12
 Full point group                 C1      NOp   1
 RotChk:  IX=3 Diff= 1.92D+00
 Largest Abelian subgroup         C1      NOp   1
 Largest concise Abelian subgroup C1      NOp   1
                         Standard orientation:                         
 ---------------------------------------------------------------------
 Center     Atomic      Atomic             Coordinates (Angstroms)
 Number     Number       Type             X           Y           Z
 ---------------------------------------------------------------------
      1         17           0       -1.195513   -0.000005    0.000011
      2          7           0        1.851002   -0.000021   -0.000003
      3          1           0        2.203683    0.547914   -0.791176
      4          1           0        2.197865    0.411155    0.872464
      5          1           0        0.767263    0.002458   -0.003653
      6          1           0        2.197887   -0.961294   -0.077799
 ---------------------------------------------------------------------
 Rotational constants (GHZ):         179.9542842           4.4631224           4.4631172
 Leave Link  202 at Sat Aug 21 09:32:21 2021, MaxMem=   104857600 cpu:               0.3 elap:               0.0
 (Enter /sw/arch/RedHatEnterpriseServer7/EB_production/2020/software/Gaussian/g16.c01/l301.exe)
 Standard basis: TZVP (5D, 7F)
 Ernie: Thresh=  0.10000D-02 Tol=  0.10000D-05 Strict=F.
 There are    67 symmetry adapted cartesian basis functions of A   symmetry.
 There are    65 symmetry adapted basis functions of A   symmetry.
    65 basis functions,   114 primitive gaussians,    67 cartesian basis functions
    14 alpha electrons       14 beta electrons
       nuclear repulsion energy        49.0306838986 Hartrees.
 IExCor=  404 DFT=T Ex=B Corr=P86 ExCW=0 ScaHFX=  0.000000
 ScaDFX=  1.000000  1.000000  1.000000  1.000000 ScalE2=  1.000000  1.000000
 IRadAn=      5 IRanWt=     -1 IRanGd=            0 ICorTp=0 IEmpDi=131
 NAtoms=    6 NActive=    6 NUniq=    6 SFac= 1.00D+00 NAtFMM=   60 NAOKFM=F Big=F
 Integral buffers will be    131072 words long.
 Raffenetti 2 integral format.
 Two-electron integral symmetry is turned on.
 R6Disp:  Grimme-D3 Dispersion energy=       -0.0018478031 Hartrees.
 Nuclear repulsion after empirical dispersion term =       49.0288360955 Hartrees.
 ------------------------------------------------------------------------------
 Polarizable Continuum Model (PCM)
 =================================
 Model                : PCM.
 Atomic radii         : UFF (Universal Force Field).
 Polarization charges : Total charges.
 Charge compensation  : None.
 Solution method      : On-the-fly selection.
 Cavity type          : Scaled VdW (van der Waals Surface) (Alpha=1.100).
 Cavity algorithm     : GePol (No added spheres)
                        Default sphere list used, NSphG=    6.
                        Lebedev-Laikov grids with approx.  5.0 points / Ang**2.
                        Smoothing algorithm: York/Karplus (Gamma=1.0000).
                        Polarization charges: spherical gaussians, with
                                              point-specific exponents (IZeta= 3).
                        Self-potential: point-specific (ISelfS= 7).
                        Self-field    : sphere-specific E.n sum rule (ISelfD= 2).
 1st derivatives      : Analytical E(r).r(x)/FMM algorithm (CHGder, D1EAlg=3).
                        Cavity 1st derivative terms included.
 Solvent              : Water, Eps=  78.355300 Eps(inf)=   1.777849
 ------------------------------------------------------------------------------
 Spheres list:
 ISph  on   Nord     Re0    Alpha      Xe            Ye            Ze
    1  Cl      1    1.9735  1.100     -1.195513     -0.000005      0.000011
    2   N      2    1.8300  1.100      1.851002     -0.000021     -0.000003
    3   H      3    1.4430  1.100      2.203683      0.547914     -0.791176
    4   H      4    1.4430  1.100      2.197865      0.411155      0.872464
    5   H      5    1.4430  1.100      0.767263      0.002458     -0.003653
    6   H      6    1.4430  1.100      2.197887     -0.961294     -0.077799
 ------------------------------------------------------------------------------
 GePol: Number of generator spheres                  =       6
 GePol: Total number of spheres                      =       6
 GePol: Number of exposed spheres                    =       6 (100.00%)
 GePol: Number of points                             =     709
 GePol: Average weight of points                     =       0.15
 GePol: Minimum weight of points                     =   0.15D-09
 GePol: Maximum weight of points                     =    0.21616
 GePol: Number of points with low weight             =      29
 GePol: Fraction of low-weight points (<1% of avg)   =       4.09%
 GePol: Cavity surface area                          =    106.400 Ang**2
 GePol: Cavity volume                                =     83.434 Ang**3
 Leave Link  301 at Sat Aug 21 09:32:21 2021, MaxMem=   104857600 cpu:               1.2 elap:               0.1
 (Enter /sw/arch/RedHatEnterpriseServer7/EB_production/2020/software/Gaussian/g16.c01/l302.exe)
 NPDir=0 NMtPBC=     1 NCelOv=     1 NCel=       1 NClECP=     1 NCelD=      1
         NCelK=      1 NCelE2=     1 NClLst=     1 CellRange=     0.0.
 One-electron integrals computed using PRISM.
 One-electron integral symmetry used in STVInt
 NBasis=    65 RedAO= T EigKep=  4.06D-03  NBF=    65
 NBsUse=    65 1.00D-06 EigRej= -1.00D+00 NBFU=    65
 Precomputing XC quadrature grid using
 IXCGrd= 4 IRadAn=           5 IRanWt=          -1 IRanGd=           0 AccXCQ= 0.00D+00.
 Generated NRdTot=       0 NPtTot=           0 NUsed=           0 NTot=          32
 NSgBfM=    67    67    67    67    67 MxSgAt=     6 MxSgA2=     6.
 Leave Link  302 at Sat Aug 21 09:32:22 2021, MaxMem=   104857600 cpu:               4.6 elap:               0.2
 (Enter /sw/arch/RedHatEnterpriseServer7/EB_production/2020/software/Gaussian/g16.c01/l303.exe)
 DipDrv:  MaxL=1.
 Leave Link  303 at Sat Aug 21 09:32:22 2021, MaxMem=   104857600 cpu:               0.6 elap:               0.1
 (Enter /sw/arch/RedHatEnterpriseServer7/EB_production/2020/software/Gaussian/g16.c01/l401.exe)
 Initial guess from the checkpoint file:  "NLXLAEXVIDQMFP-UHFFFAOYSA-N.chk"
 B after Tr=     0.000000    0.000000   -0.000000
         Rot=    0.735030    0.678034    0.000010    0.000111 Ang=  85.38 deg.
 Guess basis will be translated and rotated to current coordinates.
 JPrj=2 DoOrth=T DoCkMO=T.
 Generating alternative initial guess.
 ExpMin= 1.03D-01 ExpMax= 6.95D+04 ExpMxC= 2.37D+03 IAcc=3 IRadAn=         5 AccDes= 0.00D+00
 Harris functional with IExCor=  404 and IRadAn=       5 diagonalized for initial guess.
 HarFok:  IExCor=  404 AccDes= 0.00D+00 IRadAn=         5 IDoV= 1 UseB2=F ITyADJ=14
 ICtDFT=  3500011 ScaDFX=  1.000000  1.000000  1.000000  1.000000
 FoFCou: FMM=F IPFlag=           0 FMFlag=      100000 FMFlg1=           0
         NFxFlg=           0 DoJE=T BraDBF=F KetDBF=T FulRan=T
         wScrn=  0.000000 ICntrl=       500 IOpCl=  0 I1Cent=   200000004 NGrid=           0
         NMat0=    1 NMatS0=      1 NMatT0=    0 NMatD0=    1 NMtDS0=    0 NMtDT0=    0
 Petite list used in FoFCou.
 Harris En= -517.430246431275    
 Leave Link  401 at Sat Aug 21 09:32:22 2021, MaxMem=   104857600 cpu:               5.1 elap:               0.2
 (Enter /sw/arch/RedHatEnterpriseServer7/EB_production/2020/software/Gaussian/g16.c01/l502.exe)
 Keep J ints in memory in canonical form, NReq=23649785.
 FoFCou: FMM=F IPFlag=           0 FMFlag=           0 FMFlg1=           0
         NFxFlg=           0 DoJE=F BraDBF=F KetDBF=F FulRan=T
         wScrn=  0.000000 ICntrl=       600 IOpCl=  0 I1Cent=           0 NGrid=           0
         NMat0=    1 NMatS0=   2145 NMatT0=    0 NMatD0=    1 NMtDS0=    0 NMtDT0=    0
 Symmetry not used in FoFCou.
 Two-electron integral symmetry not used.
 Closed shell SCF:
 Using DIIS extrapolation, IDIIS=  1040.
 NGot=   104857600 LenX=   102544437 LenY=   102539507
 Requested convergence on RMS density matrix=1.00D-08 within 128 cycles.
 Requested convergence on MAX density matrix=1.00D-06.
 Requested convergence on             energy=1.00D-06.
 No special actions if energy rises.

 Cycle   1  Pass 1  IDiag  1:
 Inv3:  Mode=1 IEnd=     1508043.
 Iteration    1 A*A^-1 deviation from unit magnitude is 3.33D-15 for    583.
 Iteration    1 A*A^-1 deviation from orthogonality  is 1.72D-15 for    406    212.
 Iteration    1 A^-1*A deviation from unit magnitude is 3.55D-15 for    227.
 Iteration    1 A^-1*A deviation from orthogonality  is 2.44D-15 for    396    262.
 E= -517.490943626254    
 DIIS: error= 1.15D-03 at cycle   1 NSaved=   1.
 NSaved= 1 IEnMin= 1 EnMin= -517.490943626254     IErMin= 1 ErrMin= 1.15D-03
 ErrMax= 1.15D-03  0.00D+00 EMaxC= 1.00D-01 BMatC= 6.34D-05 BMatP= 6.34D-05
 IDIUse=3 WtCom= 9.88D-01 WtEn= 1.15D-02
 Coeff-Com:  0.100D+01
 Coeff-En:   0.100D+01
 Coeff:      0.100D+01
 Gap=     0.428 Goal=   None    Shift=    0.000
 GapD=    0.428 DampG=2.000 DampE=1.000 DampFc=2.0000 IDamp=-1.
 RMSDP=1.84D-04 MaxDP=2.90D-03              OVMax= 5.92D-03

 Cycle   2  Pass 1  IDiag  1:
 E= -517.491021939109     Delta-E=       -0.000078312855 Rises=F Damp=F
 DIIS: error= 3.07D-04 at cycle   2 NSaved=   2.
 NSaved= 2 IEnMin= 2 EnMin= -517.491021939109     IErMin= 2 ErrMin= 3.07D-04
 ErrMax= 3.07D-04  0.00D+00 EMaxC= 1.00D-01 BMatC= 7.13D-06 BMatP= 6.34D-05
 IDIUse=3 WtCom= 9.97D-01 WtEn= 3.07D-03
 Coeff-Com:  0.163D+00 0.837D+00
 Coeff-En:   0.000D+00 0.100D+01
 Coeff:      0.162D+00 0.838D+00
 Gap=     0.216 Goal=   None    Shift=    0.000
 RMSDP=4.50D-05 MaxDP=8.23D-04 DE=-7.83D-05 OVMax= 1.15D-03

 Cycle   3  Pass 1  IDiag  1:
 E= -517.491021868992     Delta-E=        0.000000070117 Rises=F Damp=F
 DIIS: error= 4.37D-04 at cycle   3 NSaved=   3.
 NSaved= 3 IEnMin= 2 EnMin= -517.491021939109     IErMin= 2 ErrMin= 3.07D-04
 ErrMax= 4.37D-04  0.00D+00 EMaxC= 1.00D-01 BMatC= 7.27D-06 BMatP= 7.13D-06
 IDIUse=3 WtCom= 9.96D-01 WtEn= 4.37D-03
 Coeff-Com:  0.154D-01 0.501D+00 0.483D+00
 Coeff-En:   0.000D+00 0.503D+00 0.497D+00
 Coeff:      0.153D-01 0.501D+00 0.483D+00
 Gap=     0.217 Goal=   None    Shift=    0.000
 RMSDP=2.68D-05 MaxDP=3.66D-04 DE= 7.01D-08 OVMax= 6.80D-04

 Cycle   4  Pass 1  IDiag  1:
 E= -517.491027589385     Delta-E=       -0.000005720393 Rises=F Damp=F
 DIIS: error= 7.60D-05 at cycle   4 NSaved=   4.
 NSaved= 4 IEnMin= 4 EnMin= -517.491027589385     IErMin= 4 ErrMin= 7.60D-05
 ErrMax= 7.60D-05  0.00D+00 EMaxC= 1.00D-01 BMatC= 2.14D-07 BMatP= 7.13D-06
 IDIUse=1 WtCom= 1.00D+00 WtEn= 0.00D+00
 Coeff-Com: -0.102D-02 0.175D+00 0.233D+00 0.593D+00
 Coeff:     -0.102D-02 0.175D+00 0.233D+00 0.593D+00
 Gap=     0.217 Goal=   None    Shift=    0.000
 RMSDP=4.17D-06 MaxDP=5.16D-05 DE=-5.72D-06 OVMax= 1.07D-04

 Cycle   5  Pass 1  IDiag  1:
 E= -517.491027717139     Delta-E=       -0.000000127754 Rises=F Damp=F
 DIIS: error= 5.82D-06 at cycle   5 NSaved=   5.
 NSaved= 5 IEnMin= 5 EnMin= -517.491027717139     IErMin= 5 ErrMin= 5.82D-06
 ErrMax= 5.82D-06  0.00D+00 EMaxC= 1.00D-01 BMatC= 2.37D-09 BMatP= 2.14D-07
 IDIUse=1 WtCom= 1.00D+00 WtEn= 0.00D+00
 Coeff-Com: -0.701D-03 0.440D-01 0.687D-01 0.182D+00 0.706D+00
 Coeff:     -0.701D-03 0.440D-01 0.687D-01 0.182D+00 0.706D+00
 Gap=     0.217 Goal=   None    Shift=    0.000
 RMSDP=1.08D-06 MaxDP=2.32D-05 DE=-1.28D-07 OVMax= 2.28D-05

 Cycle   6  Pass 1  IDiag  1:
 E= -517.491027719256     Delta-E=       -0.000000002117 Rises=F Damp=F
 DIIS: error= 2.28D-06 at cycle   6 NSaved=   6.
 NSaved= 6 IEnMin= 6 EnMin= -517.491027719256     IErMin= 6 ErrMin= 2.28D-06
 ErrMax= 2.28D-06  0.00D+00 EMaxC= 1.00D-01 BMatC= 4.31D-10 BMatP= 2.37D-09
 IDIUse=1 WtCom= 1.00D+00 WtEn= 0.00D+00
 Coeff-Com: -0.226D-03 0.788D-02 0.156D-01 0.396D-01 0.345D+00 0.592D+00
 Coeff:     -0.226D-03 0.788D-02 0.156D-01 0.396D-01 0.345D+00 0.592D+00
 Gap=     0.217 Goal=   None    Shift=    0.000
 RMSDP=3.43D-07 MaxDP=8.34D-06 DE=-2.12D-09 OVMax= 6.08D-06

 Cycle   7  Pass 1  IDiag  1:
 E= -517.491027719624     Delta-E=       -0.000000000368 Rises=F Damp=F
 DIIS: error= 4.83D-07 at cycle   7 NSaved=   7.
 NSaved= 7 IEnMin= 7 EnMin= -517.491027719624     IErMin= 7 ErrMin= 4.83D-07
 ErrMax= 4.83D-07  0.00D+00 EMaxC= 1.00D-01 BMatC= 1.17D-11 BMatP= 4.31D-10
 IDIUse=1 WtCom= 1.00D+00 WtEn= 0.00D+00
 Coeff-Com: -0.361D-04 0.678D-03 0.228D-02 0.580D-02 0.994D-01 0.221D+00
 Coeff-Com:  0.671D+00
 Coeff:     -0.361D-04 0.678D-03 0.228D-02 0.580D-02 0.994D-01 0.221D+00
 Coeff:      0.671D+00
 Gap=     0.217 Goal=   None    Shift=    0.000
 RMSDP=5.22D-08 MaxDP=8.58D-07 DE=-3.68D-10 OVMax= 1.43D-06

 Cycle   8  Pass 1  IDiag  1:
 E= -517.491027719635     Delta-E=       -0.000000000011 Rises=F Damp=F
 DIIS: error= 7.23D-08 at cycle   8 NSaved=   8.
 NSaved= 8 IEnMin= 8 EnMin= -517.491027719635     IErMin= 8 ErrMin= 7.23D-08
 ErrMax= 7.23D-08  0.00D+00 EMaxC= 1.00D-01 BMatC= 4.03D-13 BMatP= 1.17D-11
 IDIUse=1 WtCom= 1.00D+00 WtEn= 0.00D+00
 Coeff-Com: -0.429D-05-0.576D-04-0.714D-04 0.161D-03 0.834D-02 0.231D-01
 Coeff-Com:  0.176D+00 0.792D+00
 Coeff:     -0.429D-05-0.576D-04-0.714D-04 0.161D-03 0.834D-02 0.231D-01
 Coeff:      0.176D+00 0.792D+00
 Gap=     0.217 Goal=   None    Shift=    0.000
 RMSDP=1.19D-08 MaxDP=1.41D-07 DE=-1.13D-11 OVMax= 3.40D-07

 Cycle   9  Pass 1  IDiag  1:
 E= -517.491027719635     Delta-E=        0.000000000000 Rises=F Damp=F
 DIIS: error= 5.58D-09 at cycle   9 NSaved=   9.
 NSaved= 9 IEnMin= 8 EnMin= -517.491027719635     IErMin= 9 ErrMin= 5.58D-09
 ErrMax= 5.58D-09  0.00D+00 EMaxC= 1.00D-01 BMatC= 2.36D-15 BMatP= 4.03D-13
 IDIUse=1 WtCom= 1.00D+00 WtEn= 0.00D+00
 Coeff-Com:  0.158D-06-0.217D-04-0.317D-04-0.724D-04-0.916D-04 0.169D-02
 Coeff-Com:  0.114D-01 0.882D-01 0.899D+00
 Coeff:      0.158D-06-0.217D-04-0.317D-04-0.724D-04-0.916D-04 0.169D-02
 Coeff:      0.114D-01 0.882D-01 0.899D+00
 Gap=     0.217 Goal=   None    Shift=    0.000
 RMSDP=9.38D-10 MaxDP=1.99D-08 DE= 2.27D-13 OVMax= 2.53D-08

 Error on total polarization charges =  0.01101
 SCF Done:  E(RB-P86) =  -517.491027720     A.U. after    9 cycles
            NFock=  9  Conv=0.94D-09     -V/T= 2.0032
 KE= 5.158315167012D+02 PE=-1.326615243882D+03 EE= 2.442638633659D+02
 Leave Link  502 at Sat Aug 21 09:32:23 2021, MaxMem=   104857600 cpu:              36.6 elap:               1.6
 (Enter /sw/arch/RedHatEnterpriseServer7/EB_production/2020/software/Gaussian/g16.c01/l701.exe)
 ... and contract with generalized density number  0.
 Compute integral first derivatives.
 R6Disp: Adding Grimme-D3 dispersion energy 1st derivatives to the gradient.
 D1PCM: PCM CHGder 1st derivatives, ID1Alg=3 FixD1E=F DoIter=F DoCFld=F I1PDM=0.
 GePol: Maximum number of non-zero 1st derivatives   =     297
 Leave Link  701 at Sat Aug 21 09:32:24 2021, MaxMem=   104857600 cpu:              11.8 elap:               0.5
 (Enter /sw/arch/RedHatEnterpriseServer7/EB_production/2020/software/Gaussian/g16.c01/l702.exe)
 L702 exits ... SP integral derivatives will be done elsewhere.
 Leave Link  702 at Sat Aug 21 09:32:24 2021, MaxMem=   104857600 cpu:               0.4 elap:               0.0
 (Enter /sw/arch/RedHatEnterpriseServer7/EB_production/2020/software/Gaussian/g16.c01/l703.exe)
 Integral derivatives from FoFJK, PRISM(SPDF).
 Compute integral first derivatives, UseDBF=F ICtDFT=           0.
 Calling FoFJK, ICntrl=      2527 FMM=F ISym2X=0 I1Cent= 0 IOpClX= 0 NMat=1 NMatS=1 NMatT=0.
 FoFJK:  IHMeth= 1 ICntrl=    2527 DoSepK=F KAlg= 0 I1Cent=           0 FoldK=F
 IRaf=         0 NMat=       1 IRICut=       1 DoRegI=T DoRafI=F ISym2E= 0 IDoP0=0 IntGTp=1.
 FoFCou: FMM=F IPFlag=           0 FMFlag=      100000 FMFlg1=         800
         NFxFlg=           0 DoJE=F BraDBF=F KetDBF=F FulRan=T
         wScrn=  0.000000 ICntrl=      2527 IOpCl=  0 I1Cent=           0 NGrid=           0
         NMat0=    1 NMatS0=      1 NMatT0=    0 NMatD0=    1 NMtDS0=    0 NMtDT0=    0
 Symmetry not used in FoFCou.
[...]
 Initial command:
 /sw/arch/RedHatEnterpriseServer7/EB_production/2020/software/Gaussian/g16.c01/l1.exe "/scratch-local/elenaa.10684698/Gau-15339.inp" -scrdir="/scratch-local/elenaa.10684698/"
 Entering Link 1 = /sw/arch/RedHatEnterpriseServer7/EB_production/2020/software/Gaussian/g16.c01/l1.exe PID=     18328.
  
 Copyright (c) 1988-2019, Gaussian, Inc.  All Rights Reserved.
  
 This is part of the Gaussian(R) 16 program.  It is based on
 the Gaussian(R) 09 system (copyright 2009, Gaussian, Inc.),
 the Gaussian(R) 03 system (copyright 2003, Gaussian, Inc.),
 the Gaussian(R) 98 system (copyright 1998, Gaussian, Inc.),
 the Gaussian(R) 94 system (copyright 1995, Gaussian, Inc.),
 the Gaussian 92(TM) system (copyright 1992, Gaussian, Inc.),
 the Gaussian 90(TM) system (copyright 1990, Gaussian, Inc.),
 the Gaussian 88(TM) system (copyright 1988, Gaussian, Inc.),
 the Gaussian 86(TM) system (copyright 1986, Carnegie Mellon
 University), and the Gaussian 82(TM) system (copyright 1983,
 Carnegie Mellon University). Gaussian is a federally registered
 trademark of Gaussian, Inc.
  
 This software contains proprietary and confidential information,
 including trade secrets, belonging to Gaussian, Inc.
  
 This software is provided under written license and may be
 used, copied, transmitted, or stored only in accord with that
 written license.
  
 The following legend is applicable only to US Government
 contracts under FAR:
  
                    RESTRICTED RIGHTS LEGEND
  
 Use, reproduction and disclosure by the US Government is
 subject to restrictions as set forth in subparagraphs (a)
 and (c) of the Commercial Computer Software - Restricted
 Rights clause in FAR 52.227-19.
  
 Gaussian, Inc.
 340 Quinnipiac St., Bldg. 40, Wallingford CT 06492
  
  
 ---------------------------------------------------------------
 Warning -- This program may not be used in any manner that
 competes with the business of Gaussian, Inc. or will provide
 assistance to any competitor of Gaussian, Inc.  The licensee
 of this program is prohibited from giving any competitor of
 Gaussian, Inc. access to this program.  By using this program,
 the user acknowledges that Gaussian, Inc. is engaged in the
 business of creating and licensing software in the field of
 computational chemistry and represents and warrants to the
 licensee that it is not a competitor of Gaussian, Inc. and that
 it will not use this program in any manner prohibited above.
 ---------------------------------------------------------------
  

 Cite this work as:
 Gaussian 16, Revision C.01,
 M. J. Frisch, G. W. Trucks, H. B. Schlegel, G. E. Scuseria, 
 M. A. Robb, J. R. Cheeseman, G. Scalmani, V. Barone, 
 G. A. Petersson, H. Nakatsuji, X. Li, M. Caricato, A. V. Marenich, 
 J. Bloino, B. G. Janesko, R. Gomperts, B. Mennucci, H. P. Hratchian, 
 J. V. Ortiz, A. F. Izmaylov, J. L. Sonnenberg, D. Williams-Young, 
 F. Ding, F. Lipparini, F. Egidi, J. Goings, B. Peng, A. Petrone, 
 T. Henderson, D. Ranasinghe, V. G. Zakrzewski, J. Gao, N. Rega, 
 G. Zheng, W. Liang, M. Hada, M. Ehara, K. Toyota, R. Fukuda, 
 J. Hasegawa, M. Ishida, T. Nakajima, Y. Honda, O. Kitao, H. Nakai, 
 T. Vreven, K. Throssell, J. A. Montgomery, Jr., J. E. Peralta, 
 F. Ogliaro, M. J. Bearpark, J. J. Heyd, E. N. Brothers, K. N. Kudin, 
 V. N. Staroverov, T. A. Keith, R. Kobayashi, J. Normand, 
 K. Raghavachari, A. P. Rendell, J. C. Burant, S. S. Iyengar, 
 J. Tomasi, M. Cossi, J. M. Millam, M. Klene, C. Adamo, R. Cammi, 
 J. W. Ochterski, R. L. Martin, K. Morokuma, O. Farkas, 
 J. B. Foresman, and D. J. Fox, Gaussian, Inc., Wallingford CT, 2019.
 
 ******************************************
 Gaussian 16:  ES64L-G16RevC.01  3-Jul-2019
                21-Aug-2021 
 ******************************************
 %chk=NLXLAEXVIDQMFP-UHFFFAOYSA-N.chk
 %NProcShared=24
 Will use up to   24 processors via shared memory.
 ---------------------------------------------------------
 # BP86/TZVP SCRF=COSMORS geom=CHECKPOINT guess=CHECKPOINT
 ---------------------------------------------------------
 1/29=2,38=1,172=1/1;
 2/12=2,40=1/2;
 3/5=19,7=101,11=2,14=-4,25=1,30=1,70=12101,74=404,116=-2/1,2,3;
 4/5=1/1;
 5/5=2,38=6/2;
 6/7=2,8=2,9=2,10=2,28=1/1;
 99/5=1,9=1/99;
 -------------------------------------------
 COSMO-file for #NLXLAEXVIDQMFP-UHFFFAOYSA-N
 -------------------------------------------
 Structure from the checkpoint file:  "NLXLAEXVIDQMFP-UHFFFAOYSA-N.chk"
 Charge =  0 Multiplicity = 1
 Redundant internal coordinates found in file.  (old form).
 Cl,0,-1.2599143342,3.0141051581,-1.5083106652
 N,0,-1.1121249428,0.1951393628,-0.5053090282
 H,0,-1.9956138938,-0.063293496,-0.052078917
 H,0,-0.9375847508,-0.4452402337,-1.2876733653
 H,0,-1.1680417965,1.2313424447,-0.8737470591
 H,0,-0.3494007169,0.1076255171,0.1754013428
 Recover connectivity data from disk.
                           ----------------------------
                           !    Current Parameters    !
                           ! (Angstroms and Degrees)  !
 --------------------------                            --------------------------
 ! Name  Definition              Value                                          !
 --------------------------------------------------------------------------------
 ! R1    R(1,5)                  1.8946                                         !
 ! R2    R(2,3)                  1.026                                          !
 ! R3    R(2,4)                  1.026                                          !
 ! R4    R(2,5)                  1.1012                                         !
 ! R5    R(2,6)                  1.026                                          !
 ! A1    A(3,2,4)              109.0331                                         !
 ! A2    A(3,2,5)              109.9429                                         !
 ! A3    A(3,2,6)              108.9987                                         !
 ! A4    A(4,2,5)              109.9277                                         !
 ! A5    A(4,2,6)              109.0384                                         !
 ! A6    A(5,2,6)              109.8757                                         !
 ! A7    L(1,5,2,3,-1)         180.1295                                         !
 ! A8    L(1,5,2,3,-2)         180.0513                                         !
 ! D1    D(3,2,5,4)           -120.0369                                         !
 ! D2    D(3,2,6,4)            118.9254                                         !
 ! D3    D(3,2,6,5)           -120.5343                                         !
 ! D4    D(4,2,6,5)            120.5403                                         !
 --------------------------------------------------------------------------------
                          Input orientation:                          
 ---------------------------------------------------------------------
 Center     Atomic      Atomic             Coordinates (Angstroms)
 Number     Number       Type             X           Y           Z
 ---------------------------------------------------------------------
      1         17           0       -1.259914    3.014105   -1.508311
      2          7           0       -1.112125    0.195139   -0.505309
      3          1           0       -1.995614   -0.063293   -0.052079
      4          1           0       -0.937585   -0.445240   -1.287673
      5          1           0       -1.168042    1.231342   -0.873747
      6          1           0       -0.349401    0.107626    0.175401
 ---------------------------------------------------------------------
                    Distance matrix (angstroms):
                    1          2          3          4          5
     1  Cl   0.000000
     2  N    2.995734   0.000000
     3  H    3.483138   1.026040   0.000000
     4  H    3.481328   1.025985   1.670929   0.000000
     5  H    1.894559   1.101177   1.742440   1.742233   0.000000
     6  H    3.480165   1.026048   1.670622   1.670990   1.741731
                    6
     6  H    0.000000
 Stoichiometry    ClH4N
 Framework group  C1[X(ClH4N)]
 Deg. of freedom    12
 Full point group                 C1      NOp   1
 Largest Abelian subgroup         C1      NOp   1
 Largest concise Abelian subgroup C1      NOp   1
                         Standard orientation:                         
 ---------------------------------------------------------------------
 Center     Atomic      Atomic             Coordinates (Angstroms)
 Number     Number       Type             X           Y           Z
 ---------------------------------------------------------------------
      1         17           0       -1.175014   -0.000003    0.000009
      2          7           0        1.820720   -0.000068    0.000034
      3          1           0        2.172066    0.415554    0.869846
      4          1           0        2.169960   -0.961767   -0.076190
      5          1           0        0.719545    0.000324    0.001594
      6          1           0        2.168625    0.546410   -0.795640
 ---------------------------------------------------------------------
 Rotational constants (GHZ):         179.6217698           4.6125090           4.6124766
 Standard basis: TZVP (5D, 7F)
 There are    67 symmetry adapted cartesian basis functions of A   symmetry.
 There are    65 symmetry adapted basis functions of A   symmetry.
    65 basis functions,   114 primitive gaussians,    67 cartesian basis functions
    14 alpha electrons       14 beta electrons
       nuclear repulsion energy        49.5768191484 Hartrees.
 NAtoms=    6 NActive=    6 NUniq=    6 SFac= 1.00D+00 NAtFMM=   60 NAOKFM=F Big=F
 Integral buffers will be    131072 words long.
 Raffenetti 2 integral format.
 Two-electron integral symmetry is turned on.
 Warning! Using old PCM defaults because the COSMOthermo output has been requested.
 These settings can be overridden by following keywords.
 ------------------------------------------------------------------------------
 Polarizable Continuum Model (PCM)
 =================================
 Model                : C-PCM.
 Atomic radii         : Klamt.
 XCosmo               : -1.000 (infinite dielectric limit)
 Polarization charges : Electronic and nuclear charges.
 Charge compensation  : Type 3 (Electronic density weighted correction).
 Solution method      : On-the-fly selection.
 Cavity type          : VdW (van der Waals Surface) (Alpha=1.000).
 Cavity algorithm     : GePol (No added spheres)
                        Default sphere list used, NSphG=    6.
                        Tesserae with average area of 0.200 Ang**2.
                        Smoothing algorithm: None.
                        Polarization charges: point-like.
                        Self-potential: constant (ISelfS= 1).
                        Self-field    : global E.n sum rule (ISelfD= 3).
 Solvent              : Water, Eps=  78.355300 Eps(inf)=   1.777849
 ------------------------------------------------------------------------------
 Spheres list:
 ISph  on   Nord     Re0    Alpha      Xe            Ye            Ze
    1  Cl      1    2.0500  1.000     -1.175014     -0.000003      0.000009
    2   N      2    1.8300  1.000      1.820720     -0.000068      0.000034
    3   H      3    1.3000  1.000      2.172066      0.415554      0.869846
    4   H      4    1.3000  1.000      2.169960     -0.961767     -0.076190
    5   H      5    1.3000  1.000      0.719545      0.000324      0.001594
    6   H      6    1.3000  1.000      2.168625      0.546410     -0.795640
 ------------------------------------------------------------------------------
 One-electron integrals computed using PRISM.
 NBasis=    65 RedAO= T EigKep=  4.07D-03  NBF=    65
 NBsUse=    65 1.00D-06 EigRej= -1.00D+00 NBFU=    65
 Initial guess from the checkpoint file:  "NLXLAEXVIDQMFP-UHFFFAOYSA-N.chk"
 B after Tr=    -0.000000    0.000000   -0.000000
         Rot=    1.000000    0.000000   -0.000000    0.000000 Ang=   0.00 deg.
 Keep J ints in memory in canonical form, NReq=23649785.
 Requested convergence on RMS density matrix=1.00D-08 within 128 cycles.
 Requested convergence on MAX density matrix=1.00D-06.
 Requested convergence on             energy=1.00D-06.
 No special actions if energy rises.
 Inv3:  Mode=1 IEnd=      910803.
 Iteration    1 A*A^-1 deviation from unit magnitude is 2.66D-15 for     77.
 Iteration    1 A*A^-1 deviation from orthogonality  is 2.56D-15 for    239     66.
 Iteration    1 A^-1*A deviation from unit magnitude is 2.44D-15 for     22.
 Iteration    1 A^-1*A deviation from orthogonality  is 4.09D-15 for    196    165.
 Error on nuclear    polarization charges =  0.01489
 Error on electronic polarization charges = -0.03714
 SCF Done:  E(RB-P86) =  -517.502235765     A.U. after    9 cycles
            NFock=  9  Conv=0.26D-08     -V/T= 2.0032
 --------------------------------------------------------------------
 Variational C-PCM results
 =========================
 <psi(f)|   H    |psi(f)>                     (a.u.) =    -517.433363
 <psi(f)|H+V(f)/2|psi(f)>                     (a.u.) =    -517.502236
 Total free energy in solution:
 - with all non electrostatic terms           (a.u.) =    -517.496228
 --------------------------------------------------------------------
 (Polarized solute)-Solvent               (kcal/mol) =     -43.22
 --------------------------------------------------------------------
 Cavitation energy                        (kcal/mol) =      11.30
 Dispersion energy                        (kcal/mol) =      -8.43
 Repulsion energy                         (kcal/mol) =       0.90
 Total non electrostatic                  (kcal/mol) =       3.77
 --------------------------------------------------------------------
 Partition over spheres:
 Sphere  on Atom  Surface  Charge   GEl     GCav    GDR
    1     Cl1      47.15   0.687  -19.82    5.49   -3.63
    2      N2      18.49  -0.235   -6.98    2.24   -1.01
    3      H3       8.21  -0.148   -5.46    1.16   -0.96
    4      H4       8.21  -0.147   -5.43    1.16   -0.96
    5      H5       0.67  -0.010   -0.08    0.09    0.00
    6      H6       8.21  -0.148   -5.45    1.16   -0.96
 --------------------------------------------------------------------
 - cavitation energy not included in the total energy.
 - dispersion energy not included in the total energy.
 - repulsion  energy not included in the total energy.
 After PCM corrections, the energy is  -517.502235765     a.u.
 --------------------------------------------------------------------
 Writing COSMO formatted file "NLXLAEXVIDQMFP-UHFFFAOYSA-N.cosmo"
 Recomputed dielectric energy= -0.069217 old= -0.068873 diff=-3.44D-04

 **********************************************************************

            Population analysis using the SCF Density.

 **********************************************************************

 Orbital symmetries:
       Occupied  (A) (A) (A) (A) (A) (A) (A) (A) (A) (A) (A) (A)
                 (A) (A)
       Virtual   (A) (A) (A) (A) (A) (A) (A) (A) (A) (A) (A) (A)
                 (A) (A) (A) (A) (A) (A) (A) (A) (A) (A) (A) (A)
                 (A) (A) (A) (A) (A) (A) (A) (A) (A) (A) (A) (A)
                 (A) (A) (A) (A) (A) (A) (A) (A) (A) (A) (A) (A)
                 (A) (A) (A)
 The electronic state is 1-A.
 Alpha  occ. eigenvalues -- -100.65985 -14.07547  -9.09914  -6.91828  -6.91668
 Alpha  occ. eigenvalues --   -6.91668  -0.87261  -0.65533  -0.48784  -0.48773
 Alpha  occ. eigenvalues --   -0.47060  -0.23563  -0.22739  -0.22739
 Alpha virt. eigenvalues --    0.01343   0.08559   0.08563   0.12700   0.22707
 Alpha virt. eigenvalues --    0.23250   0.23257   0.32367   0.35838   0.35844
 Alpha virt. eigenvalues --    0.36754   0.43776   0.44585   0.44588   0.62495
 Alpha virt. eigenvalues --    0.75059   0.77860   0.77862   0.78732   0.78733
 Alpha virt. eigenvalues --    0.96959   1.01993   1.02014   1.45500   1.45524
 Alpha virt. eigenvalues --    1.46888   1.52547   1.52556   1.56623   1.83789
 Alpha virt. eigenvalues --    1.83793   1.83826   1.88173   2.20888   2.20897
 Alpha virt. eigenvalues --    2.29394   2.29611   2.29677   2.37101   2.43308
 Alpha virt. eigenvalues --    2.44335   2.44352   2.57430   2.67866   2.67882
 Alpha virt. eigenvalues --    2.92147   3.69361   3.76814   3.76831  24.24208
 Alpha virt. eigenvalues --   31.17426
          Condensed to atoms (all electrons):
               1          2          3          4          5          6
     1  Cl  17.784274  -0.108734   0.003787   0.003795   0.137199   0.003794
     2  N   -0.108734   6.127395   0.349501   0.349544   0.278630   0.349526
     3  H    0.003787   0.349501   0.356156  -0.009709  -0.005388  -0.009713
     4  H    0.003795   0.349544  -0.009709   0.356278  -0.005412  -0.009710
     5  H    0.137199   0.278630  -0.005388  -0.005412   0.376263  -0.005433
     6  H    0.003794   0.349526  -0.009713  -0.009710  -0.005433   0.356278
 Mulliken charges:
               1
     1  Cl  -0.824117
     2  N   -0.345862
     3  H    0.315366
     4  H    0.315214
     5  H    0.224141
     6  H    0.315258
 Sum of Mulliken charges =  -0.00000
 Mulliken charges with hydrogens summed into heavy atoms:
               1
     1  Cl  -0.824117
     2  N    0.824117
 Electronic spatial extent (au):  <R**2>=            268.0692
 Charge=             -0.0000 electrons
 Dipole moment (field-independent basis, Debye):
    X=             12.5272    Y=              0.0012    Z=             -0.0011  Tot=             12.5272
 Quadrupole moment (field-independent basis, Debye-Ang):
   XX=            -11.8590   YY=            -20.3713   ZZ=            -20.3730
   XY=              0.0024   XZ=              0.0013   YZ=              0.0002
 Traceless Quadrupole moment (field-independent basis, Debye-Ang):
   XX=              5.6754   YY=             -2.8369   ZZ=             -2.8386
   XY=              0.0024   XZ=              0.0013   YZ=              0.0002
 Octapole moment (field-independent basis, Debye-Ang**2):
  XXX=             57.0638  YYY=             -1.3376  ZZZ=              0.3139  XYY=             10.5948
  XXY=              0.0050  XXZ=              0.0102  XZZ=             10.5927  YZZ=              1.3388
  YYZ=             -0.3229  XYZ=              0.0030
 Hexadecapole moment (field-independent basis, Debye-Ang**3):
 XXXX=           -225.4940 YYYY=            -27.2846 ZZZZ=            -27.2864 XXXY=              0.0142
 XXXZ=              0.0558 YYYX=             -2.9972 YYYZ=              0.0012 ZZZX=              0.7132
 ZZZY=             -0.0029 XXYY=            -43.1261 XXZZ=            -43.1264 YYZZ=             -9.0941
 XXYZ=              0.0134 YYXZ=             -0.7204 ZZXY=              3.0005
 N-N= 4.957681914836D+01 E-N=-1.327731532581D+03  KE= 5.158318880585D+02
 Unable to Open any file for archive entry.
 1\1\GINC-TCN1052\SP\RBP86\TZVP\Cl1H4N1\ELENAA\21-Aug-2021\0\\# BP86/TZ
 VP SCRF=COSMORS geom=CHECKPOINT guess=CHECKPOINT\\COSMO-file for #NLXL
 AEXVIDQMFP-UHFFFAOYSA-N\\0,1\Cl,0,-1.2599143342,3.0141051581,-1.508310
 6652\N,0,-1.1121249428,0.1951393628,-0.5053090282\H,0,-1.9956138938,-0
 .063293496,-0.052078917\H,0,-0.9375847508,-0.4452402337,-1.2876733653\
 H,0,-1.1680417965,1.2313424447,-0.8737470591\H,0,-0.3494007169,0.10762
 55171,0.1754013428\\Version=ES64L-G16RevC.01\State=1-A\HF=-517.5022358
 \RMSD=2.645e-09\Dipole=0.243548,-4.6375339,1.6507281\Quadrupole=-2.095
 08,3.4936084,-1.3985284,-0.2928675,0.1040631,-1.9953736\PG=C01 [X(Cl1H
 4N1)]\\@
 The archive entry for this job was punched.


 I DON'T EXACTLY UNDERSTAND WHAT YOU ARE SAYING,
 BUT YOU ARE ABSOLUTELY RIGHT.
     M.S.GORDON, IN A NDSU FACULTY MEETING
 Job cpu time:       0 days  0 hours  0 minutes 49.4 seconds.
 Elapsed time:       0 days  0 hours  0 minutes  2.4 seconds.
 File lengths (MBytes):  RWF=     10 Int=      0 D2E=      0 Chk=      3 Scr=      1
 Normal termination of Gaussian 16 at Sat Aug 21 09:32:52 2021.
