 Entering Gaussian System, Link 0=g16
 Input=NUPDFKWZQURWCC-UHFFFAOYSA-M.gjf
 Output=NUPDFKWZQURWCC-UHFFFAOYSA-M.log
 Initial command:
 /sw/arch/RedHatEnterpriseServer7/EB_production/2020/software/Gaussian/g16.c01/l1.exe "/scratch-local/elenaa.10684699/Gau-897.inp" -scrdir="/scratch-local/elenaa.10684699/"
 Entering Link 1 = /sw/arch/RedHatEnterpriseServer7/EB_production/2020/software/Gaussian/g16.c01/l1.exe PID=       900.
  
 Copyright (c) 1988-2019, Gaussian, Inc.  All Rights Reserved.
  
 This is part of the Gaussian(R) 16 program.  It is based on
 the Gaussian(R) 09 system (copyright 2009, Gaussian, Inc.),
 the Gaussian(R) 03 system (copyright 2003, Gaussian, Inc.),
 the Gaussian(R) 98 system (copyright 1998, Gaussian, Inc.),
 the Gaussian(R) 94 system (copyright 1995, Gaussian, Inc.),
 the Gaussian 92(TM) system (copyright 1992, Gaussian, Inc.),
 the Gaussian 90(TM) system (copyright 1990, Gaussian, Inc.),
 the Gaussian 88(TM) system (copyright 1988, Gaussian, Inc.),
 the Gaussian 86(TM) system (copyright 1986, Carnegie Mellon
 University), and the Gaussian 82(TM) system (copyright 1983,
 Carnegie Mellon University). Gaussian is a federally registered
 trademark of Gaussian, Inc.
  
 This software contains proprietary and confidential information,
 including trade secrets, belonging to Gaussian, Inc.
  
 This software is provided under written license and may be
 used, copied, transmitted, or stored only in accord with that
 written license.
  
 The following legend is applicable only to US Government
 contracts under FAR:
  
                    RESTRICTED RIGHTS LEGEND
  
 Use, reproduction and disclosure by the US Government is
 subject to restrictions as set forth in subparagraphs (a)
 and (c) of the Commercial Computer Software - Restricted
 Rights clause in FAR 52.227-19.
  
 Gaussian, Inc.
 340 Quinnipiac St., Bldg. 40, Wallingford CT 06492
  
  
 ---------------------------------------------------------------
 Warning -- This program may not be used in any manner that
 competes with the business of Gaussian, Inc. or will provide
 assistance to any competitor of Gaussian, Inc.  The licensee
 of this program is prohibited from giving any competitor of
 Gaussian, Inc. access to this program.  By using this program,
 the user acknowledges that Gaussian, Inc. is engaged in the
 business of creating and licensing software in the field of
 computational chemistry and represents and warrants to the
 licensee that it is not a competitor of Gaussian, Inc. and that
 it will not use this program in any manner prohibited above.
 ---------------------------------------------------------------
  

 Cite this work as:
 Gaussian 16, Revision C.01,
 M. J. Frisch, G. W. Trucks, H. B. Schlegel, G. E. Scuseria, 
 M. A. Robb, J. R. Cheeseman, G. Scalmani, V. Barone, 
 G. A. Petersson, H. Nakatsuji, X. Li, M. Caricato, A. V. Marenich, 
 J. Bloino, B. G. Janesko, R. Gomperts, B. Mennucci, H. P. Hratchian, 
 J. V. Ortiz, A. F. Izmaylov, J. L. Sonnenberg, D. Williams-Young, 
 F. Ding, F. Lipparini, F. Egidi, J. Goings, B. Peng, A. Petrone, 
 T. Henderson, D. Ranasinghe, V. G. Zakrzewski, J. Gao, N. Rega, 
 G. Zheng, W. Liang, M. Hada, M. Ehara, K. Toyota, R. Fukuda, 
 J. Hasegawa, M. Ishida, T. Nakajima, Y. Honda, O. Kitao, H. Nakai, 
 T. Vreven, K. Throssell, J. A. Montgomery, Jr., J. E. Peralta, 
 F. Ogliaro, M. J. Bearpark, J. J. Heyd, E. N. Brothers, K. N. Kudin, 
 V. N. Staroverov, T. A. Keith, R. Kobayashi, J. Normand, 
 K. Raghavachari, A. P. Rendell, J. C. Burant, S. S. Iyengar, 
 J. Tomasi, M. Cossi, J. M. Millam, M. Klene, C. Adamo, R. Cammi, 
 J. W. Ochterski, R. L. Martin, K. Morokuma, O. Farkas, 
 J. B. Foresman, and D. J. Fox, Gaussian, Inc., Wallingford CT, 2019.
 
 ******************************************
 Gaussian 16:  ES64L-G16RevC.01  3-Jul-2019
                21-Aug-2021 
 ******************************************
 %chk=NUPDFKWZQURWCC-UHFFFAOYSA-M.chk
 %NProcShared=24
 Will use up to   24 processors via shared memory.
 -------------------------------------------------------------
 #P BP86/TZVP EmpiricalDispersion=GD3 SCRF=(Solvent=Water) Opt
 -------------------------------------------------------------
 1/18=20,19=15,26=3,38=1/1,3;
 2/9=110,12=2,17=6,18=5,40=1/2;
 3/5=19,7=101,11=2,25=1,30=1,70=2201,71=1,72=1,74=404,124=31/1,2,3;
 4//1;
 5/5=2,38=5,53=1/2;
 6/7=2,8=2,9=2,10=2,28=1/1;
 7//1,2,3,16;
 1/18=20,19=15,26=3/3(2);
 2/9=110/2;
 99//99;
 2/9=110/2;
 3/5=19,7=101,11=2,25=1,30=1,70=2205,71=1,72=1,74=404,124=31/1,2,3;
 4/5=5,16=3,69=1/1;
 5/5=2,38=5,53=1/2;
 7//1,2,3,16;
 1/18=20,19=15,26=3/3(-5);
 2/9=110/2;
 6/7=2,8=2,9=2,10=2,19=2,28=1/1;
 99/9=1/99;
 Leave Link    1 at Sat Aug 21 09:32:12 2021, MaxMem=           0 cpu:               1.9 elap:               0.8
 (Enter /sw/arch/RedHatEnterpriseServer7/EB_production/2020/software/Gaussian/g16.c01/l101.exe)
 -------------------------------------
 Particle #NUPDFKWZQURWCC-UHFFFAOYSA-M
 -------------------------------------
 Symbolic Z-matrix:
 Charge =  0 Multiplicity = 1
 C                    -1.32147  -1.73058   1.44847 
 N                    -1.12541  -0.57773   0.52927 
 C                    -1.88711   0.56168   1.11226 
 C                     0.31196  -0.16959   0.37245 
 C                     1.17744  -0.18073   1.67571 
 O                     1.63439  -1.46511   2.04229 
 C                    -1.72442  -0.93929  -0.79672 
 C                    -1.65402   0.15698  -1.84722 
 C                    -0.56249   0.2311   -2.73143 
 C                    -0.50493   1.23702  -3.70075 
 C                    -1.53971   2.1696   -3.80523 
 C                    -2.63782   2.09341  -2.9452 
 C                    -2.69974   1.08909  -1.97458 
 Cl                    0.83196  -3.52269  -0.69525 
 H                    -2.40108  -1.98873   1.53933 
 H                    -0.81436  -2.64012   1.09257 
 H                    -0.96682  -1.51041   2.47806 
 H                    -2.97992   0.34922   1.1333 
 H                    -1.73533   1.50083   0.53772 
 H                    -1.57392   0.77144   2.15791 
 H                     0.81906  -0.7892   -0.39509 
 H                     0.37093   0.86162  -0.04429 
 H                     0.62864   0.27111   2.52586 
 H                     2.07064   0.45664   1.50212 
 H                     1.40995  -2.0407    1.27655 
 H                    -1.23501  -1.84534  -1.20823 
 H                    -2.79328  -1.23076  -0.67229 
 H                     0.24063  -0.49235  -2.67688 
 H                     0.34058   1.29064  -4.37433 
 H                    -1.49383   2.94701  -4.55687 
 H                    -3.44313   2.81129  -3.03229 
 H                    -3.5618    1.03927  -1.3213 
 
 Add virtual bond connecting atoms H16        and Cl14       Dist= 4.89D+00.
 Add virtual bond connecting atoms H25        and Cl14       Dist= 4.79D+00.
 ITRead=  0  0  0  0  0  0  0  0  0  0  0  0  0  0  0  0  0  0  0  0
 ITRead=  0  0  0  0  0  0  0  0  0  0  0  0
 MicOpt= -1 -1 -1 -1 -1 -1 -1 -1 -1 -1 -1 -1 -1 -1 -1 -1 -1 -1 -1 -1
 MicOpt= -1 -1 -1 -1 -1 -1 -1 -1 -1 -1 -1 -1
 NAtoms=     32 NQM=       32 NQMF=       0 NMMI=      0 NMMIF=      0
                NMic=       0 NMicF=      0.
                    Isotopes and Nuclear Properties:
 (Nuclear quadrupole moments (NQMom) in fm**2, nuclear magnetic moments (NMagM)
  in nuclear magnetons)

  Atom         1           2           3           4           5           6           7           8           9          10
 IAtWgt=          12          14          12          12          12          16          12          12          12          12
 AtmWgt=  12.0000000  14.0030740  12.0000000  12.0000000  12.0000000  15.9949146  12.0000000  12.0000000  12.0000000  12.0000000
 NucSpn=           0           2           0           0           0           0           0           0           0           0
 AtZEff=  -0.0000000  -0.0000000  -0.0000000  -0.0000000  -0.0000000  -0.0000000  -0.0000000  -0.0000000  -0.0000000  -0.0000000
 NQMom=    0.0000000   2.0440000   0.0000000   0.0000000   0.0000000   0.0000000   0.0000000   0.0000000   0.0000000   0.0000000
 NMagM=    0.0000000   0.4037610   0.0000000   0.0000000   0.0000000   0.0000000   0.0000000   0.0000000   0.0000000   0.0000000
 AtZNuc=   6.0000000   7.0000000   6.0000000   6.0000000   6.0000000   8.0000000   6.0000000   6.0000000   6.0000000   6.0000000

  Atom        11          12          13          14          15          16          17          18          19          20
 IAtWgt=          12          12          12          35           1           1           1           1           1           1
 AtmWgt=  12.0000000  12.0000000  12.0000000  34.9688527   1.0078250   1.0078250   1.0078250   1.0078250   1.0078250   1.0078250
 NucSpn=           0           0           0           3           1           1           1           1           1           1
 AtZEff=  -0.0000000  -0.0000000  -0.0000000  -0.0000000  -0.0000000  -0.0000000  -0.0000000  -0.0000000  -0.0000000  -0.0000000
 NQMom=    0.0000000   0.0000000   0.0000000  -8.1650000   0.0000000   0.0000000   0.0000000   0.0000000   0.0000000   0.0000000
 NMagM=    0.0000000   0.0000000   0.0000000   0.8218740   2.7928460   2.7928460   2.7928460   2.7928460   2.7928460   2.7928460
 AtZNuc=   6.0000000   6.0000000   6.0000000  17.0000000   1.0000000   1.0000000   1.0000000   1.0000000   1.0000000   1.0000000

  Atom        21          22          23          24          25          26          27          28          29          30
 IAtWgt=           1           1           1           1           1           1           1           1           1           1
 AtmWgt=   1.0078250   1.0078250   1.0078250   1.0078250   1.0078250   1.0078250   1.0078250   1.0078250   1.0078250   1.0078250
 NucSpn=           1           1           1           1           1           1           1           1           1           1
 AtZEff=  -0.0000000  -0.0000000  -0.0000000  -0.0000000  -0.0000000  -0.0000000  -0.0000000  -0.0000000  -0.0000000  -0.0000000
 NQMom=    0.0000000   0.0000000   0.0000000   0.0000000   0.0000000   0.0000000   0.0000000   0.0000000   0.0000000   0.0000000
 NMagM=    2.7928460   2.7928460   2.7928460   2.7928460   2.7928460   2.7928460   2.7928460   2.7928460   2.7928460   2.7928460
 AtZNuc=   1.0000000   1.0000000   1.0000000   1.0000000   1.0000000   1.0000000   1.0000000   1.0000000   1.0000000   1.0000000

  Atom        31          32
 IAtWgt=           1           1
 AtmWgt=   1.0078250   1.0078250
 NucSpn=           1           1
 AtZEff=  -0.0000000  -0.0000000
 NQMom=    0.0000000   0.0000000
 NMagM=    2.7928460   2.7928460
 AtZNuc=   1.0000000   1.0000000
 Leave Link  101 at Sat Aug 21 09:32:13 2021, MaxMem=   104857600 cpu:               2.2 elap:               0.1
 (Enter /sw/arch/RedHatEnterpriseServer7/EB_production/2020/software/Gaussian/g16.c01/l103.exe)

 GradGradGradGradGradGradGradGradGradGradGradGradGradGradGradGradGradGrad
 Berny optimization.
 Initialization pass.
                           ----------------------------
                           !    Initial Parameters    !
                           ! (Angstroms and Degrees)  !
 --------------------------                            --------------------------
 ! Name  Definition              Value          Derivative Info.                !
 --------------------------------------------------------------------------------
 ! R1    R(1,2)                  1.4874         estimate D2E/DX2                !
 ! R2    R(1,15)                 1.1138         estimate D2E/DX2                !
 ! R3    R(1,16)                 1.1005         estimate D2E/DX2                !
 ! R4    R(1,17)                 1.111          estimate D2E/DX2                !
 ! R5    R(2,3)                  1.4894         estimate D2E/DX2                !
 ! R6    R(2,4)                  1.5024         estimate D2E/DX2                !
 ! R7    R(2,7)                  1.4993         estimate D2E/DX2                !
 ! R8    R(3,18)                 1.1135         estimate D2E/DX2                !
 ! R9    R(3,19)                 1.1114         estimate D2E/DX2                !
 ! R10   R(3,20)                 1.1115         estimate D2E/DX2                !
 ! R11   R(4,5)                  1.5645         estimate D2E/DX2                !
 ! R12   R(4,21)                 1.1091         estimate D2E/DX2                !
 ! R13   R(4,22)                 1.1138         estimate D2E/DX2                !
 ! R14   R(5,6)                  1.4117         estimate D2E/DX2                !
 ! R15   R(5,23)                 1.1082         estimate D2E/DX2                !
 ! R16   R(5,24)                 1.1109         estimate D2E/DX2                !
 ! R17   R(6,25)                 0.9839         estimate D2E/DX2                !
 ! R18   R(7,8)                  1.52           estimate D2E/DX2                !
 ! R19   R(7,26)                 1.109          estimate D2E/DX2                !
 ! R20   R(7,27)                 1.1148         estimate D2E/DX2                !
 ! R21   R(8,9)                  1.4067         estimate D2E/DX2                !
 ! R22   R(8,13)                 1.4066         estimate D2E/DX2                !
 ! R23   R(9,10)                 1.3981         estimate D2E/DX2                !
 ! R24   R(9,28)                 1.0823         estimate D2E/DX2                !
 ! R25   R(10,11)                1.3969         estimate D2E/DX2                !
 ! R26   R(10,29)                1.0823         estimate D2E/DX2                !
 ! R27   R(11,12)                1.3969         estimate D2E/DX2                !
 ! R28   R(11,30)                1.0823         estimate D2E/DX2                !
 ! R29   R(12,13)                1.3981         estimate D2E/DX2                !
 ! R30   R(12,31)                1.0823         estimate D2E/DX2                !
 ! R31   R(13,32)                1.0828         estimate D2E/DX2                !
 ! R32   R(14,16)                2.5857         estimate D2E/DX2                !
 ! R33   R(14,25)                2.5334         estimate D2E/DX2                !
 ! A1    A(2,1,15)             110.9667         estimate D2E/DX2                !
 ! A2    A(2,1,16)             112.333          estimate D2E/DX2                !
 ! A3    A(2,1,17)             112.1493         estimate D2E/DX2                !
 ! A4    A(15,1,16)            106.3495         estimate D2E/DX2                !
 ! A5    A(15,1,17)            106.2462         estimate D2E/DX2                !
 ! A6    A(16,1,17)            108.4451         estimate D2E/DX2                !
 ! A7    A(1,2,3)              106.4772         estimate D2E/DX2                !
 ! A8    A(1,2,4)              113.6508         estimate D2E/DX2                !
 ! A9    A(1,2,7)              107.8774         estimate D2E/DX2                !
 ! A10   A(3,2,4)              108.8031         estimate D2E/DX2                !
 ! A11   A(3,2,7)              109.0473         estimate D2E/DX2                !
 ! A12   A(4,2,7)              110.8201         estimate D2E/DX2                !
 ! A13   A(2,3,18)             111.3062         estimate D2E/DX2                !
 ! A14   A(2,3,19)             111.9787         estimate D2E/DX2                !
 ! A15   A(2,3,20)             111.6234         estimate D2E/DX2                !
 ! A16   A(18,3,19)            107.7609         estimate D2E/DX2                !
 ! A17   A(18,3,20)            107.1441         estimate D2E/DX2                !
 ! A18   A(19,3,20)            106.7607         estimate D2E/DX2                !
 ! A19   A(2,4,5)              116.1271         estimate D2E/DX2                !
 ! A20   A(2,4,21)             110.9706         estimate D2E/DX2                !
 ! A21   A(2,4,22)             109.9513         estimate D2E/DX2                !
 ! A22   A(5,4,21)             108.6368         estimate D2E/DX2                !
 ! A23   A(5,4,22)             106.797          estimate D2E/DX2                !
 ! A24   A(21,4,22)            103.5381         estimate D2E/DX2                !
 ! A25   A(4,5,6)              113.6946         estimate D2E/DX2                !
 ! A26   A(4,5,23)             111.2352         estimate D2E/DX2                !
 ! A27   A(4,5,24)             108.0908         estimate D2E/DX2                !
 ! A28   A(6,5,23)             109.3932         estimate D2E/DX2                !
 ! A29   A(6,5,24)             107.5964         estimate D2E/DX2                !
 ! A30   A(23,5,24)            106.5057         estimate D2E/DX2                !
 ! A31   A(5,6,25)             104.8518         estimate D2E/DX2                !
 ! A32   A(2,7,8)              114.7601         estimate D2E/DX2                !
 ! A33   A(2,7,26)             110.4195         estimate D2E/DX2                !
 ! A34   A(2,7,27)             110.3277         estimate D2E/DX2                !
 ! A35   A(8,7,26)             108.2024         estimate D2E/DX2                !
 ! A36   A(8,7,27)             108.066          estimate D2E/DX2                !
 ! A37   A(26,7,27)            104.5324         estimate D2E/DX2                !
 ! A38   A(7,8,9)              120.5555         estimate D2E/DX2                !
 ! A39   A(7,8,13)             120.4033         estimate D2E/DX2                !
 ! A40   A(9,8,13)             119.0151         estimate D2E/DX2                !
 ! A41   A(8,9,10)             120.3743         estimate D2E/DX2                !
 ! A42   A(8,9,28)             120.5907         estimate D2E/DX2                !
 ! A43   A(10,9,28)            119.0335         estimate D2E/DX2                !
 ! A44   A(9,10,11)            120.1108         estimate D2E/DX2                !
 ! A45   A(9,10,29)            119.9517         estimate D2E/DX2                !
 ! A46   A(11,10,29)           119.9369         estimate D2E/DX2                !
 ! A47   A(10,11,12)           119.9908         estimate D2E/DX2                !
 ! A48   A(10,11,30)           120.004          estimate D2E/DX2                !
 ! A49   A(12,11,30)           120.0039         estimate D2E/DX2                !
 ! A50   A(11,12,13)           120.095          estimate D2E/DX2                !
 ! A51   A(11,12,31)           119.9466         estimate D2E/DX2                !
 ! A52   A(13,12,31)           119.9582         estimate D2E/DX2                !
 ! A53   A(8,13,12)            120.3952         estimate D2E/DX2                !
 ! A54   A(8,13,32)            120.449          estimate D2E/DX2                !
 ! A55   A(12,13,32)           119.1557         estimate D2E/DX2                !
 ! A56   A(16,14,25)            53.6612         estimate D2E/DX2                !
 ! A57   A(1,16,14)            143.0459         estimate D2E/DX2                !
 ! A58   L(6,25,14,1,-1)       179.998          estimate D2E/DX2                !
 ! A59   L(6,25,14,1,-2)       179.9973         estimate D2E/DX2                !
 ! D1    D(15,1,2,3)            59.695          estimate D2E/DX2                !
 ! D2    D(15,1,2,4)           179.4622         estimate D2E/DX2                !
 ! D3    D(15,1,2,7)           -57.2412         estimate D2E/DX2                !
 ! D4    D(16,1,2,3)           178.5974         estimate D2E/DX2                !
 ! D5    D(16,1,2,4)           -61.6355         estimate D2E/DX2                !
 ! D6    D(16,1,2,7)            61.6612         estimate D2E/DX2                !
 ! D7    D(17,1,2,3)           -58.955          estimate D2E/DX2                !
 ! D8    D(17,1,2,4)            60.8122         estimate D2E/DX2                !
 ! D9    D(17,1,2,7)          -175.8912         estimate D2E/DX2                !
 ! D10   D(2,1,16,14)            8.2581         estimate D2E/DX2                !
 ! D11   D(15,1,16,14)         129.8359         estimate D2E/DX2                !
 ! D12   D(17,1,16,14)        -116.2612         estimate D2E/DX2                !
 ! D13   D(1,2,3,18)           -63.9752         estimate D2E/DX2                !
 ! D14   D(1,2,3,19)           175.3283         estimate D2E/DX2                !
 ! D15   D(1,2,3,20)            55.6914         estimate D2E/DX2                !
 ! D16   D(4,2,3,18)           173.1615         estimate D2E/DX2                !
 ! D17   D(4,2,3,19)            52.4651         estimate D2E/DX2                !
 ! D18   D(4,2,3,20)           -67.1718         estimate D2E/DX2                !
 ! D19   D(7,2,3,18)            52.1791         estimate D2E/DX2                !
 ! D20   D(7,2,3,19)           -68.5174         estimate D2E/DX2                !
 ! D21   D(7,2,3,20)           171.8457         estimate D2E/DX2                !
 ! D22   D(1,2,4,5)            -40.6412         estimate D2E/DX2                !
 ! D23   D(1,2,4,21)            84.0516         estimate D2E/DX2                !
 ! D24   D(1,2,4,22)          -162.005          estimate D2E/DX2                !
 ! D25   D(3,2,4,5)             77.7972         estimate D2E/DX2                !
 ! D26   D(3,2,4,21)          -157.5101         estimate D2E/DX2                !
 ! D27   D(3,2,4,22)           -43.5667         estimate D2E/DX2                !
 ! D28   D(7,2,4,5)           -162.3147         estimate D2E/DX2                !
 ! D29   D(7,2,4,21)           -37.622          estimate D2E/DX2                !
 ! D30   D(7,2,4,22)            76.3215         estimate D2E/DX2                !
 ! D31   D(1,2,7,8)            177.9143         estimate D2E/DX2                !
 ! D32   D(1,2,7,26)           -59.4858         estimate D2E/DX2                !
 ! D33   D(1,2,7,27)            55.5669         estimate D2E/DX2                !
 ! D34   D(3,2,7,8)             62.6592         estimate D2E/DX2                !
 ! D35   D(3,2,7,26)          -174.7409         estimate D2E/DX2                !
 ! D36   D(3,2,7,27)           -59.6881         estimate D2E/DX2                !
 ! D37   D(4,2,7,8)            -57.0828         estimate D2E/DX2                !
 ! D38   D(4,2,7,26)            65.5171         estimate D2E/DX2                !
 ! D39   D(4,2,7,27)          -179.4302         estimate D2E/DX2                !
 ! D40   D(2,4,5,6)             80.086          estimate D2E/DX2                !
 ! D41   D(2,4,5,23)           -43.9396         estimate D2E/DX2                !
 ! D42   D(2,4,5,24)          -160.5292         estimate D2E/DX2                !
 ! D43   D(21,4,5,6)           -45.7944         estimate D2E/DX2                !
 ! D44   D(21,4,5,23)         -169.82           estimate D2E/DX2                !
 ! D45   D(21,4,5,24)           73.5904         estimate D2E/DX2                !
 ! D46   D(22,4,5,6)          -156.8859         estimate D2E/DX2                !
 ! D47   D(22,4,5,23)           79.0885         estimate D2E/DX2                !
 ! D48   D(22,4,5,24)          -37.5011         estimate D2E/DX2                !
 ! D49   D(4,5,6,25)             9.347          estimate D2E/DX2                !
 ! D50   D(23,5,6,25)          134.364          estimate D2E/DX2                !
 ! D51   D(24,5,6,25)         -110.3188         estimate D2E/DX2                !
 ! D52   D(5,6,14,16)          -76.2368         estimate D2E/DX2                !
 ! D53   D(2,7,8,9)             91.4867         estimate D2E/DX2                !
 ! D54   D(2,7,8,13)           -90.3906         estimate D2E/DX2                !
 ! D55   D(26,7,8,9)           -32.3008         estimate D2E/DX2                !
 ! D56   D(26,7,8,13)          145.8219         estimate D2E/DX2                !
 ! D57   D(27,7,8,9)          -144.9511         estimate D2E/DX2                !
 ! D58   D(27,7,8,13)           33.1716         estimate D2E/DX2                !
 ! D59   D(7,8,9,10)           179.6724         estimate D2E/DX2                !
 ! D60   D(7,8,9,28)             0.1183         estimate D2E/DX2                !
 ! D61   D(13,8,9,10)            1.524          estimate D2E/DX2                !
 ! D62   D(13,8,9,28)         -178.0301         estimate D2E/DX2                !
 ! D63   D(7,8,13,12)         -179.6874         estimate D2E/DX2                !
 ! D64   D(7,8,13,32)            0.4275         estimate D2E/DX2                !
 ! D65   D(9,8,13,12)           -1.536          estimate D2E/DX2                !
 ! D66   D(9,8,13,32)          178.5788         estimate D2E/DX2                !
 ! D67   D(8,9,10,11)           -0.5887         estimate D2E/DX2                !
 ! D68   D(8,9,10,29)          179.6908         estimate D2E/DX2                !
 ! D69   D(28,9,10,11)         178.9723         estimate D2E/DX2                !
 ! D70   D(28,9,10,29)          -0.7482         estimate D2E/DX2                !
 ! D71   D(9,10,11,12)          -0.3573         estimate D2E/DX2                !
 ! D72   D(9,10,11,30)        -179.9405         estimate D2E/DX2                !
 ! D73   D(29,10,11,12)        179.3633         estimate D2E/DX2                !
 ! D74   D(29,10,11,30)         -0.22           estimate D2E/DX2                !
 ! D75   D(10,11,12,13)          0.3455         estimate D2E/DX2                !
 ! D76   D(10,11,12,31)       -179.4825         estimate D2E/DX2                !
 ! D77   D(30,11,12,13)        179.9288         estimate D2E/DX2                !
 ! D78   D(30,11,12,31)          0.1008         estimate D2E/DX2                !
 ! D79   D(11,12,13,8)           0.6125         estimate D2E/DX2                !
 ! D80   D(11,12,13,32)       -179.5009         estimate D2E/DX2                !
 ! D81   D(31,12,13,8)        -179.5596         estimate D2E/DX2                !
 ! D82   D(31,12,13,32)          0.327          estimate D2E/DX2                !
 ! D83   D(25,14,16,1)          71.1429         estimate D2E/DX2                !
 --------------------------------------------------------------------------------
 Trust Radius=3.00D-01 FncErr=1.00D-07 GrdErr=1.00D-06 EigMax=2.50D+02 EigMin=1.00D-04
 Number of steps in this run=    185 maximum allowed number of steps=    192.
 GradGradGradGradGradGradGradGradGradGradGradGradGradGradGradGradGradGrad

 Leave Link  103 at Sat Aug 21 09:32:13 2021, MaxMem=   104857600 cpu:               0.3 elap:               0.0
 (Enter /sw/arch/RedHatEnterpriseServer7/EB_production/2020/software/Gaussian/g16.c01/l202.exe)
                          Input orientation:                          
 ---------------------------------------------------------------------
 Center     Atomic      Atomic             Coordinates (Angstroms)
 Number     Number       Type             X           Y           Z
 ---------------------------------------------------------------------
      1          6           0       -1.321468   -1.730583    1.448470
      2          7           0       -1.125412   -0.577726    0.529273
      3          6           0       -1.887109    0.561678    1.112263
      4          6           0        0.311964   -0.169591    0.372447
      5          6           0        1.177440   -0.180728    1.675712
      6          8           0        1.634389   -1.465105    2.042293
      7          6           0       -1.724423   -0.939285   -0.796723
      8          6           0       -1.654024    0.156978   -1.847218
      9          6           0       -0.562494    0.231095   -2.731432
     10          6           0       -0.504931    1.237018   -3.700752
     11          6           0       -1.539707    2.169597   -3.805227
     12          6           0       -2.637815    2.093413   -2.945198
     13          6           0       -2.699741    1.089091   -1.974575
     14         17           0        0.831957   -3.522688   -0.695247
     15          1           0       -2.401081   -1.988730    1.539326
     16          1           0       -0.814361   -2.640115    1.092574
     17          1           0       -0.966818   -1.510409    2.478064
     18          1           0       -2.979917    0.349223    1.133300
     19          1           0       -1.735325    1.500827    0.537719
     20          1           0       -1.573918    0.771444    2.157911
     21          1           0        0.819059   -0.789197   -0.395091
     22          1           0        0.370933    0.861620   -0.044286
     23          1           0        0.628642    0.271114    2.525863
     24          1           0        2.070639    0.456636    1.502121
     25          1           0        1.409950   -2.040697    1.276545
     26          1           0       -1.235005   -1.845338   -1.208228
     27          1           0       -2.793275   -1.230759   -0.672292
     28          1           0        0.240630   -0.492349   -2.676876
     29          1           0        0.340578    1.290642   -4.374332
     30          1           0       -1.493830    2.947009   -4.556867
     31          1           0       -3.443127    2.811287   -3.032286
     32          1           0       -3.561800    1.039274   -1.321303
 ---------------------------------------------------------------------
                    Distance matrix (angstroms):
                    1          2          3          4          5
     1  C    0.000000
     2  N    1.487427   0.000000
     3  C    2.384837   1.489396   0.000000
     4  C    2.502523   1.502404   2.432695   0.000000
     5  C    2.949276   2.602894   3.203139   1.564504   0.000000
     6  O    3.026581   3.270042   4.168183   2.493100   1.411669
     7  C    2.414419   1.499268   2.433841   2.471085   3.887049
     8  C    3.812485   2.543016   2.996104   2.983064   4.532358
     9  C    4.679295   3.406357   4.078956   3.249506   4.756037
    10  C    5.998990   4.644503   5.052882   4.385980   5.809195
    11  C    6.546783   5.148525   5.185345   5.133561   6.553442
    12  C    5.971602   4.636194   4.401450   4.982886   6.409423
    13  C    4.644075   3.395003   3.235290   4.020343   5.474447
    14  Cl   3.527662   3.742131   5.229002   3.557193   4.112116
    15  H    1.113759   2.153711   2.636500   3.468643   4.011644
    16  H    1.100485   2.160442   3.376782   2.809035   3.218059
    17  H    1.110998   2.166295   2.646865   2.804764   2.647577
    18  H    2.678690   2.159461   1.113467   3.418266   4.225953
    19  H    3.382714   2.166206   1.111369   2.647452   3.550613
    20  H    2.612887   2.161916   1.111517   2.762242   2.951122
    21  H    2.977714   2.163362   3.379397   1.109131   2.187898
    22  H    3.436867   2.154004   2.554667   1.113795   2.166872
    23  H    2.995079   2.789912   2.900292   2.220745   1.108195
    24  H    4.036483   3.497296   3.978290   2.182031   1.110933
    25  H    2.754337   3.021053   4.203563   2.350320   1.916476
    26  H    2.660581   2.153546   3.406412   2.774847   4.111925
    27  H    2.629386   2.156844   2.686746   3.443845   4.730990
    28  H    4.581687   3.486080   4.471669   3.067186   4.463154
    29  H    6.767217   5.448419   5.966297   4.966388   6.282380
    30  H    7.614043   6.199057   6.163076   6.105098   7.467494
    31  H    6.723630   5.435247   4.965805   5.880353   7.243413
    32  H    4.512520   3.460536   2.992479   4.397294   5.738545
                    6          7          8          9         10
     6  O    0.000000
     7  C    4.429234   0.000000
     8  C    5.345382   1.519963   0.000000
     9  C    5.521942   2.542237   1.406686   0.000000
    10  C    6.697815   3.828425   2.433617   1.398133   0.000000
    11  C    7.581519   4.330169   2.810250   2.421935   1.396918
    12  C    7.469260   3.827204   2.433760   2.796584   2.419394
    13  C    6.437688   2.540254   1.406620   2.424214   2.796205
    14  Cl   3.517339   3.635842   4.587710   4.492375   5.785770
    15  H    4.100265   2.648835   4.078092   5.152417   6.438886
    16  H    2.877324   2.700089   4.143807   4.788560   6.172834
    17  H    2.637845   3.409454   4.686203   5.507737   6.777866
    18  H    5.040821   2.638467   3.267788   4.560048   5.502890
    19  H    4.734498   2.781187   2.738698   3.697986   4.421323
    20  H    3.912640   3.417471   4.052782   5.022015   5.973560
    21  H    2.657528   2.579367   3.019944   2.899685   4.097059
    22  H    3.371021   2.863553   2.801345   2.913692   3.778598
    23  H    2.063934   4.247536   4.934311   5.390692   6.402241
    24  H    2.043328   4.651427   5.018065   4.990714   5.857683
    25  H    0.983895   3.916100   4.896489   5.011532   6.259686
    26  H    4.352457   1.108963   2.143165   2.661578   4.030707
    27  H    5.198855   1.114847   2.145730   3.369489   4.527473
    28  H    5.015912   2.756113   2.167873   1.082292   2.143570
    29  H    7.102194   4.694261   3.413200   2.153439   1.082345
    30  H    8.532375   5.412498   3.892574   3.402321   2.152887
    31  H    8.355839   4.692385   3.413302   3.878911   3.399730
    32  H    6.677280   2.750606   2.166712   3.411371   3.878831
                   11         12         13         14         15
    11  C    0.000000
    12  C    1.396888   0.000000
    13  C    2.421664   1.398072   0.000000
    14  Cl   6.906437   6.974395   5.947947   0.000000
    15  H    6.826265   6.068846   4.680778   4.218872   0.000000
    16  H    6.902747   6.483431   5.183535   2.585653   1.772447
    17  H    7.304135   6.722465   5.439340   4.165905   1.779643
    18  H    5.456832   4.448975   3.206991   5.732858   2.442526
    19  H    4.398488   3.646417   2.722360   5.774673   3.690997
    20  H    6.124950   5.377843   4.294859   5.689316   2.947101
    21  H    5.093846   5.173245   4.290069   2.749951   3.943368
    22  H    4.416563   4.357197   3.634116   4.456282   4.279764
    23  H    6.956197   6.627445   5.656957   4.980946   3.906325
    24  H    6.643551   6.680361   5.936661   4.711452   5.096811
    25  H    7.228517   7.162289   6.103680   2.533444   3.820433
    26  H    4.791341   4.527549   3.368028   2.710901   2.988201
    27  H    4.790526   4.029937   2.662028   4.289029   2.370568
    28  H    3.395399   3.878609   3.411739   3.668716   5.195590
    29  H    2.152188   3.399660   3.878530   6.078262   7.296734
    30  H    1.082329   2.152860   3.402104   7.885326   7.896087
    31  H    2.152257   1.082338   2.153447   7.991078   6.710116
    32  H    3.396523   2.145225   1.082770   6.364632   4.324266
                   16         17         18         19         20
    16  H    0.000000
    17  H    1.794174   0.000000
    18  H    3.691535   3.052735   0.000000
    19  H    4.278252   3.663753   1.797197   0.000000
    20  H    3.653848   2.382839   1.790232   1.784117   0.000000
    21  H    2.882205   3.458977   4.250200   3.555168   3.831417
    22  H    3.867754   3.711920   3.588517   2.276760   2.939430
    23  H    3.551314   2.391987   3.868725   3.324643   2.288447
    24  H    4.252155   3.748050   5.065144   4.062729   3.716445
    25  H    2.310997   2.715489   5.000317   4.793851   4.193854
    26  H    2.470284   3.711179   3.652885   3.807292   4.277067
    27  H    3.002855   3.652245   2.406520   3.169376   3.675010
    28  H    4.464825   5.391455   5.059408   4.267408   5.316477
    29  H    6.831676   7.517347   6.499690   5.336834   6.826790
    30  H    7.974573   8.344853   6.429226   5.301374   7.058877
    31  H    7.324115   7.427861   4.860908   4.168792   5.881585
    32  H    5.187786   5.260229   2.615308   2.646697   4.016010
                   21         22         23         24         25
    21  H    0.000000
    22  H    1.746161   0.000000
    23  H    3.113276   2.649675   0.000000
    24  H    2.591904   2.333321   1.778151   0.000000
    25  H    2.170201   3.353743   2.741479   2.593081   0.000000
    26  H    2.448633   3.355804   4.679315   4.855137   3.634288
    27  H    3.649764   3.845082   4.918672   5.588652   4.703304
    28  H    2.372602   2.963232   5.272753   4.659777   4.403888
    29  H    4.515422   4.351354   6.981054   6.182344   6.646336
    30  H    6.052195   5.309386   7.863229   7.457797   8.205964
    31  H    6.171265   5.222681   7.343351   7.517103   8.103094
    32  H    4.836641   4.138686   5.740258   6.327366   6.399479
                   26         27         28         29         30
    26  H    0.000000
    27  H    1.758733   0.000000
    28  H    2.482943   3.710551   0.000000
    29  H    4.726632   5.466589   2.463819   0.000000
    30  H    5.852091   5.850831   4.286246   2.478290   0.000000
    31  H    5.466914   4.725465   4.960886   4.293003   2.478412
    32  H    3.707795   2.482921   4.317629   4.961121   4.287753
                   31         32
    31  H    0.000000
    32  H    2.466085   0.000000
 Stoichiometry    C11H18ClNO
 Framework group  C1[X(C11H18ClNO)]
 Deg. of freedom    90
 Full point group                 C1      NOp   1
 Largest Abelian subgroup         C1      NOp   1
 Largest concise Abelian subgroup C1      NOp   1
                         Standard orientation:                         
 ---------------------------------------------------------------------
 Center     Atomic      Atomic             Coordinates (Angstroms)
 Number     Number       Type             X           Y           Z
 ---------------------------------------------------------------------
      1          6           0        1.927770   -1.134797   -1.242501
      2          7           0        0.691515   -0.982224   -0.429583
      3          6           0        0.075082   -2.335115   -0.340154
      4          6           0        0.943640   -0.472077    0.960885
      5          6           0        2.195211   -1.058857    1.693642
      6          8           0        3.412626   -0.458148    1.306527
      7          6           0       -0.237656   -0.069267   -1.171846
      8          6           0       -1.581260    0.156521   -0.498023
      9          6           0       -1.763981    1.231661    0.390488
     10          6           0       -3.003467    1.439830    1.002955
     11          6           0       -4.074127    0.586371    0.726047
     12          6           0       -3.909263   -0.472660   -0.169815
     13          6           0       -2.671702   -0.684482   -0.784779
     14         17           0        2.470726    2.301810   -0.659974
     15          1           0        1.690904   -1.523638   -2.258944
     16          1           0        2.451316   -0.178282   -1.390981
     17          1           0        2.639398   -1.858621   -0.790858
     18          1           0       -0.242163   -2.702214   -1.342352
     19          1           0       -0.817613   -2.342520    0.321798
     20          1           0        0.786402   -3.082863    0.072600
     21          1           0        1.013596    0.634799    0.971002
     22          1           0        0.062766   -0.683588    1.608854
     23          1           0        2.265054   -2.155856    1.552883
     24          1           0        2.068178   -0.888002    2.783983
     25          1           0        3.149189    0.313901    0.756444
     26          1           0        0.238769    0.918864   -1.334373
     27          1           0       -0.427137   -0.460707   -2.198372
     28          1           0       -0.951150    1.913406    0.604695
     29          1           0       -3.135051    2.266288    1.689339
     30          1           0       -5.033159    0.749694    1.200410
     31          1           0       -4.741622   -1.128440   -0.390234
     32          1           0       -2.563110   -1.505011   -1.482870
 ---------------------------------------------------------------------
 Rotational constants (GHZ):           0.8448937           0.3453615           0.3023797
 Leave Link  202 at Sat Aug 21 09:32:14 2021, MaxMem=   104857600 cpu:               0.6 elap:               0.0
 (Enter /sw/arch/RedHatEnterpriseServer7/EB_production/2020/software/Gaussian/g16.c01/l301.exe)
 Standard basis: TZVP (5D, 7F)
 Ernie: Thresh=  0.10000D-02 Tol=  0.10000D-05 Strict=F.
 There are   391 symmetry adapted cartesian basis functions of A   symmetry.
 There are   377 symmetry adapted basis functions of A   symmetry.
   377 basis functions,   646 primitive gaussians,   391 cartesian basis functions
    58 alpha electrons       58 beta electrons
       nuclear repulsion energy      1030.9877074557 Hartrees.
 IExCor=  404 DFT=T Ex=B Corr=P86 ExCW=0 ScaHFX=  0.000000
 ScaDFX=  1.000000  1.000000  1.000000  1.000000 ScalE2=  1.000000  1.000000
 IRadAn=      5 IRanWt=     -1 IRanGd=            0 ICorTp=0 IEmpDi=131
 NAtoms=   32 NActive=   32 NUniq=   32 SFac= 1.00D+00 NAtFMM=   60 NAOKFM=F Big=F
 Integral buffers will be    131072 words long.
 Raffenetti 2 integral format.
 Two-electron integral symmetry is turned on.
 R6Disp:  Grimme-D3 Dispersion energy=       -0.0443677590 Hartrees.
 Nuclear repulsion after empirical dispersion term =     1030.9433396967 Hartrees.
 ------------------------------------------------------------------------------
 Polarizable Continuum Model (PCM)
 =================================
 Model                : PCM.
 Atomic radii         : UFF (Universal Force Field).
 Polarization charges : Total charges.
 Charge compensation  : None.
 Solution method      : On-the-fly selection.
 Cavity type          : Scaled VdW (van der Waals Surface) (Alpha=1.100).
 Cavity algorithm     : GePol (No added spheres)
                        Default sphere list used, NSphG=   32.
                        Lebedev-Laikov grids with approx.  5.0 points / Ang**2.
                        Smoothing algorithm: York/Karplus (Gamma=1.0000).
                        Polarization charges: spherical gaussians, with
                                              point-specific exponents (IZeta= 3).
                        Self-potential: point-specific (ISelfS= 7).
                        Self-field    : sphere-specific E.n sum rule (ISelfD= 2).
 1st derivatives      : Analytical E(r).r(x)/FMM algorithm (CHGder, D1EAlg=3).
                        Cavity 1st derivative terms included.
 Solvent              : Water, Eps=  78.355300 Eps(inf)=   1.777849
 ------------------------------------------------------------------------------
 GePol: Number of generator spheres                  =      32
 GePol: Total number of spheres                      =      32
 GePol: Number of exposed spheres                    =      31 ( 96.88%)
 GePol: Number of points                             =    2106
 GePol: Average weight of points                     =       0.14
 GePol: Minimum weight of points                     =   0.30D-09
 GePol: Maximum weight of points                     =    0.21616
 GePol: Number of points with low weight             =     114
 GePol: Fraction of low-weight points (<1% of avg)   =       5.41%
 GePol: Cavity surface area                          =    288.694 Ang**2
 GePol: Cavity volume                                =    321.505 Ang**3
 Leave Link  301 at Sat Aug 21 09:32:14 2021, MaxMem=   104857600 cpu:               1.4 elap:               0.1
 (Enter /sw/arch/RedHatEnterpriseServer7/EB_production/2020/software/Gaussian/g16.c01/l302.exe)
 NPDir=0 NMtPBC=     1 NCelOv=     1 NCel=       1 NClECP=     1 NCelD=      1
         NCelK=      1 NCelE2=     1 NClLst=     1 CellRange=     0.0.
 One-electron integrals computed using PRISM.
 One-electron integral symmetry used in STVInt
 NBasis=   377 RedAO= T EigKep=  9.08D-06  NBF=   377
 NBsUse=   377 1.00D-06 EigRej= -1.00D+00 NBFU=   377
 Precomputing XC quadrature grid using
 IXCGrd= 4 IRadAn=           5 IRanWt=          -1 IRanGd=           0 AccXCQ= 0.00D+00.
 Generated NRdTot=       0 NPtTot=           0 NUsed=           0 NTot=          32
 NSgBfM=   386   386   386   386   386 MxSgAt=    32 MxSgA2=    32.
 Leave Link  302 at Sat Aug 21 09:32:15 2021, MaxMem=   104857600 cpu:               8.5 elap:               0.4
 (Enter /sw/arch/RedHatEnterpriseServer7/EB_production/2020/software/Gaussian/g16.c01/l303.exe)
 DipDrv:  MaxL=1.
 Leave Link  303 at Sat Aug 21 09:32:15 2021, MaxMem=   104857600 cpu:               2.0 elap:               0.1
 (Enter /sw/arch/RedHatEnterpriseServer7/EB_production/2020/software/Gaussian/g16.c01/l401.exe)
 ExpMin= 9.52D-02 ExpMax= 6.95D+04 ExpMxC= 2.37D+03 IAcc=3 IRadAn=         5 AccDes= 0.00D+00
 Harris functional with IExCor=  404 and IRadAn=       5 diagonalized for initial guess.
 HarFok:  IExCor=  404 AccDes= 0.00D+00 IRadAn=         5 IDoV= 1 UseB2=F ITyADJ=14
 ICtDFT=  3500011 ScaDFX=  1.000000  1.000000  1.000000  1.000000
 FoFCou: FMM=F IPFlag=           0 FMFlag=      100000 FMFlg1=           0
         NFxFlg=           0 DoJE=T BraDBF=F KetDBF=T FulRan=T
         wScrn=  0.000000 ICntrl=       500 IOpCl=  0 I1Cent=   200000004 NGrid=           0
         NMat0=    1 NMatS0=      1 NMatT0=    0 NMatD0=    1 NMtDS0=    0 NMtDT0=    0
 Petite list used in FoFCou.
 Harris En= -1020.60149047879    
 JPrj=0 DoOrth=F DoCkMO=F.
 Leave Link  401 at Sat Aug 21 09:32:16 2021, MaxMem=   104857600 cpu:              25.3 elap:               1.1
 (Enter /sw/arch/RedHatEnterpriseServer7/EB_production/2020/software/Gaussian/g16.c01/l502.exe)
 Integral symmetry usage will be decided dynamically.
 Closed shell SCF:
 Using DIIS extrapolation, IDIIS=  1040.
 NGot=   104857600 LenX=   104537638 LenY=   104384316
 Requested convergence on RMS density matrix=1.00D-08 within 128 cycles.
 Requested convergence on MAX density matrix=1.00D-06.
 Requested convergence on             energy=1.00D-06.
 No special actions if energy rises.
 Fock matrices will be formed incrementally for  20 cycles.

 Cycle   1  Pass 1  IDiag  1:
 FoFJK:  IHMeth= 1 ICntrl=     500 DoSepK=F KAlg= 0 I1Cent=           0 FoldK=F
 IRaf= 880000000 NMat=       1 IRICut=       1 DoRegI=T DoRafI=F ISym2E= 0 IDoP0=0 IntGTp=1.
 FoFCou: FMM=F IPFlag=           0 FMFlag=      100000 FMFlg1=           0
         NFxFlg=           0 DoJE=T BraDBF=F KetDBF=F FulRan=T
         wScrn=  0.000000 ICntrl=       500 IOpCl=  0 I1Cent=           0 NGrid=           0
         NMat0=    1 NMatS0=      1 NMatT0=    0 NMatD0=    1 NMtDS0=    0 NMtDT0=    0
 Symmetry not used in FoFCou.
 Inv3:  Mode=1 IEnd=    13305708.
 Iteration    1 A*A^-1 deviation from unit magnitude is 4.22D-15 for    504.
 Iteration    1 A*A^-1 deviation from orthogonality  is 1.89D-15 for   2024    191.
 Iteration    1 A^-1*A deviation from unit magnitude is 4.22D-15 for    504.
 Iteration    1 A^-1*A deviation from orthogonality  is 2.77D-14 for   1515   1349.
 E= -1020.16212971918    
 DIIS: error= 2.51D-02 at cycle   1 NSaved=   1.
 NSaved= 1 IEnMin= 1 EnMin= -1020.16212971918     IErMin= 1 ErrMin= 2.51D-02
 ErrMax= 2.51D-02  0.00D+00 EMaxC= 1.00D-01 BMatC= 3.17D-01 BMatP= 3.17D-01
 IDIUse=3 WtCom= 7.49D-01 WtEn= 2.51D-01
 Coeff-Com:  0.100D+01
 Coeff-En:   0.100D+01
 Coeff:      0.100D+01
 Gap=     0.188 Goal=   None    Shift=    0.000
 GapD=    0.188 DampG=1.000 DampE=0.500 DampFc=0.5000 IDamp=-1.
 Damping current iteration by 5.00D-01
 RMSDP=5.51D-03 MaxDP=2.65D-01              OVMax= 2.00D-01

 Cycle   2  Pass 1  IDiag  1:
 RMSU=  2.75D-03    CP:  1.01D+00
 E= -1020.24567161757     Delta-E=       -0.083541898391 Rises=F Damp=T
 DIIS: error= 1.21D-02 at cycle   2 NSaved=   2.
 NSaved= 2 IEnMin= 2 EnMin= -1020.24567161757     IErMin= 2 ErrMin= 1.21D-02
 ErrMax= 1.21D-02  0.00D+00 EMaxC= 1.00D-01 BMatC= 5.10D-02 BMatP= 3.17D-01
 IDIUse=3 WtCom= 8.79D-01 WtEn= 1.21D-01
 Coeff-Com:  0.223D+00 0.777D+00
 Coeff-En:   0.341D+00 0.659D+00
 Coeff:      0.237D+00 0.763D+00
 Gap=     0.207 Goal=   None    Shift=    0.000
 RMSDP=1.38D-03 MaxDP=6.20D-02 DE=-8.35D-02 OVMax= 1.58D-01

 Cycle   3  Pass 1  IDiag  1:
 RMSU=  1.22D-03    CP:  1.00D+00  7.74D-01
 E= -1020.43644358251     Delta-E=       -0.190771964944 Rises=F Damp=F
 DIIS: error= 7.94D-03 at cycle   3 NSaved=   3.
 NSaved= 3 IEnMin= 3 EnMin= -1020.43644358251     IErMin= 3 ErrMin= 7.94D-03
 ErrMax= 7.94D-03  0.00D+00 EMaxC= 1.00D-01 BMatC= 2.30D-02 BMatP= 5.10D-02
 IDIUse=3 WtCom= 9.21D-01 WtEn= 7.94D-02
 Coeff-Com:  0.639D-01 0.395D+00 0.541D+00
 Coeff-En:   0.000D+00 0.000D+00 0.100D+01
 Coeff:      0.588D-01 0.363D+00 0.578D+00
 Gap=     0.142 Goal=   None    Shift=    0.000
 RMSDP=7.37D-04 MaxDP=2.80D-02 DE=-1.91D-01 OVMax= 5.39D-02

 Cycle   4  Pass 1  IDiag  1:
 RMSU=  5.08D-04    CP:  1.01D+00  7.63D-01  5.68D-01
 E= -1020.44841860764     Delta-E=       -0.011975025126 Rises=F Damp=F
 DIIS: error= 4.33D-03 at cycle   4 NSaved=   4.
 NSaved= 4 IEnMin= 4 EnMin= -1020.44841860764     IErMin= 4 ErrMin= 4.33D-03
 ErrMax= 4.33D-03  0.00D+00 EMaxC= 1.00D-01 BMatC= 8.11D-03 BMatP= 2.30D-02
 IDIUse=3 WtCom= 9.57D-01 WtEn= 4.33D-02
 Coeff-Com:  0.136D-01 0.115D+00 0.378D+00 0.493D+00
 Coeff-En:   0.000D+00 0.000D+00 0.317D+00 0.683D+00
 Coeff:      0.130D-01 0.110D+00 0.376D+00 0.501D+00
 Gap=     0.146 Goal=   None    Shift=    0.000
 RMSDP=3.77D-04 MaxDP=1.97D-02 DE=-1.20D-02 OVMax= 3.44D-02

 Cycle   5  Pass 1  IDiag  1:
 RMSU=  1.94D-04    CP:  1.00D+00  7.38D-01  6.95D-01  4.74D-01
 E= -1020.45574684387     Delta-E=       -0.007328236228 Rises=F Damp=F
 DIIS: error= 1.46D-03 at cycle   5 NSaved=   5.
 NSaved= 5 IEnMin= 5 EnMin= -1020.45574684387     IErMin= 5 ErrMin= 1.46D-03
 ErrMax= 1.46D-03  0.00D+00 EMaxC= 1.00D-01 BMatC= 4.36D-04 BMatP= 8.11D-03
 IDIUse=3 WtCom= 9.85D-01 WtEn= 1.46D-02
 Coeff-Com:  0.461D-02 0.453D-01 0.188D+00 0.296D+00 0.466D+00
 Coeff-En:   0.000D+00 0.000D+00 0.000D+00 0.000D+00 0.100D+01
 Coeff:      0.454D-02 0.446D-01 0.185D+00 0.292D+00 0.473D+00
 Gap=     0.144 Goal=   None    Shift=    0.000
 RMSDP=1.02D-04 MaxDP=6.26D-03 DE=-7.33D-03 OVMax= 1.43D-02

 Cycle   6  Pass 1  IDiag  1:
 RMSU=  5.90D-05    CP:  1.00D+00  7.51D-01  6.98D-01  5.30D-01  6.56D-01
 E= -1020.45612679285     Delta-E=       -0.000379948983 Rises=F Damp=F
 DIIS: error= 6.13D-04 at cycle   6 NSaved=   6.
 NSaved= 6 IEnMin= 6 EnMin= -1020.45612679285     IErMin= 6 ErrMin= 6.13D-04
 ErrMax= 6.13D-04  0.00D+00 EMaxC= 1.00D-01 BMatC= 1.03D-04 BMatP= 4.36D-04
 IDIUse=3 WtCom= 9.94D-01 WtEn= 6.13D-03
 Coeff-Com:  0.852D-03 0.128D-01 0.707D-01 0.129D+00 0.341D+00 0.446D+00
 Coeff-En:   0.000D+00 0.000D+00 0.000D+00 0.000D+00 0.219D+00 0.781D+00
 Coeff:      0.847D-03 0.127D-01 0.703D-01 0.128D+00 0.340D+00 0.448D+00
 Gap=     0.144 Goal=   None    Shift=    0.000
 RMSDP=3.32D-05 MaxDP=8.08D-04 DE=-3.80D-04 OVMax= 4.70D-03

 Cycle   7  Pass 1  IDiag  1:
 RMSU=  1.51D-05    CP:  1.00D+00  7.52D-01  6.98D-01  5.31D-01  6.49D-01
                    CP:  5.00D-01
 E= -1020.45623459723     Delta-E=       -0.000107804379 Rises=F Damp=F
 DIIS: error= 6.61D-05 at cycle   7 NSaved=   7.
 NSaved= 7 IEnMin= 7 EnMin= -1020.45623459723     IErMin= 7 ErrMin= 6.61D-05
 ErrMax= 6.61D-05  0.00D+00 EMaxC= 1.00D-01 BMatC= 1.97D-06 BMatP= 1.03D-04
 IDIUse=1 WtCom= 1.00D+00 WtEn= 0.00D+00
 Coeff-Com:  0.153D-03 0.412D-02 0.268D-01 0.508D-01 0.149D+00 0.228D+00
 Coeff-Com:  0.541D+00
 Coeff:      0.153D-03 0.412D-02 0.268D-01 0.508D-01 0.149D+00 0.228D+00
 Coeff:      0.541D+00
 Gap=     0.145 Goal=   None    Shift=    0.000
 RMSDP=9.25D-06 MaxDP=2.90D-04 DE=-1.08D-04 OVMax= 4.76D-04

 Cycle   8  Pass 1  IDiag  1:
 RMSU=  5.15D-06    CP:  1.00D+00  7.50D-01  6.97D-01  5.35D-01  6.60D-01
                    CP:  5.07D-01  7.14D-01
 E= -1020.45623638710     Delta-E=       -0.000001789877 Rises=F Damp=F
 DIIS: error= 2.35D-05 at cycle   8 NSaved=   8.
 NSaved= 8 IEnMin= 8 EnMin= -1020.45623638710     IErMin= 8 ErrMin= 2.35D-05
 ErrMax= 2.35D-05  0.00D+00 EMaxC= 1.00D-01 BMatC= 2.16D-07 BMatP= 1.97D-06
 IDIUse=1 WtCom= 1.00D+00 WtEn= 0.00D+00
 Coeff-Com: -0.456D-05 0.593D-03 0.502D-02 0.992D-02 0.340D-01 0.637D-01
 Coeff-Com:  0.296D+00 0.590D+00
 Coeff:     -0.456D-05 0.593D-03 0.502D-02 0.992D-02 0.340D-01 0.637D-01
 Coeff:      0.296D+00 0.590D+00
 Gap=     0.145 Goal=   None    Shift=    0.000
 RMSDP=2.50D-06 MaxDP=1.04D-04 DE=-1.79D-06 OVMax= 1.25D-04

 Cycle   9  Pass 1  IDiag  1:
 RMSU=  1.05D-06    CP:  1.00D+00  7.50D-01  6.97D-01  5.34D-01  6.62D-01
                    CP:  5.17D-01  7.40D-01  7.18D-01
 E= -1020.45623657471     Delta-E=       -0.000000187605 Rises=F Damp=F
 DIIS: error= 3.45D-06 at cycle   9 NSaved=   9.
 NSaved= 9 IEnMin= 9 EnMin= -1020.45623657471     IErMin= 9 ErrMin= 3.45D-06
 ErrMax= 3.45D-06  0.00D+00 EMaxC= 1.00D-01 BMatC= 6.28D-09 BMatP= 2.16D-07
 IDIUse=1 WtCom= 1.00D+00 WtEn= 0.00D+00
 Coeff-Com: -0.448D-05 0.867D-04 0.105D-02 0.212D-02 0.823D-02 0.175D-01
 Coeff-Com:  0.104D+00 0.256D+00 0.611D+00
 Coeff:     -0.448D-05 0.867D-04 0.105D-02 0.212D-02 0.823D-02 0.175D-01
 Coeff:      0.104D+00 0.256D+00 0.611D+00
 Gap=     0.144 Goal=   None    Shift=    0.000
 RMSDP=4.54D-07 MaxDP=1.54D-05 DE=-1.88D-07 OVMax= 4.57D-05

 Cycle  10  Pass 1  IDiag  1:
 RMSU=  2.89D-07    CP:  1.00D+00  7.50D-01  6.97D-01  5.34D-01  6.61D-01
                    CP:  5.18D-01  7.49D-01  7.09D-01  8.27D-01
 E= -1020.45623657859     Delta-E=       -0.000000003876 Rises=F Damp=F
 DIIS: error= 2.23D-06 at cycle  10 NSaved=  10.
 NSaved=10 IEnMin=10 EnMin= -1020.45623657859     IErMin=10 ErrMin= 2.23D-06
 ErrMax= 2.23D-06  0.00D+00 EMaxC= 1.00D-01 BMatC= 2.45D-09 BMatP= 6.28D-09
 IDIUse=1 WtCom= 1.00D+00 WtEn= 0.00D+00
 Coeff-Com: -0.248D-05-0.517D-05 0.144D-03 0.309D-03 0.155D-02 0.396D-02
 Coeff-Com:  0.310D-01 0.930D-01 0.403D+00 0.467D+00
 Coeff:     -0.248D-05-0.517D-05 0.144D-03 0.309D-03 0.155D-02 0.396D-02
 Coeff:      0.310D-01 0.930D-01 0.403D+00 0.467D+00
 Gap=     0.145 Goal=   None    Shift=    0.000
 RMSDP=1.80D-07 MaxDP=5.18D-06 DE=-3.88D-09 OVMax= 2.19D-05

 Cycle  11  Pass 1  IDiag  1:
 RMSU=  9.53D-08    CP:  1.00D+00  7.50D-01  6.97D-01  5.34D-01  6.61D-01
                    CP:  5.18D-01  7.51D-01  7.22D-01  8.43D-01  7.12D-01
 E= -1020.45623658094     Delta-E=       -0.000000002357 Rises=F Damp=F
 DIIS: error= 3.42D-07 at cycle  11 NSaved=  11.
 NSaved=11 IEnMin=11 EnMin= -1020.45623658094     IErMin=11 ErrMin= 3.42D-07
 ErrMax= 3.42D-07  0.00D+00 EMaxC= 1.00D-01 BMatC= 7.31D-11 BMatP= 2.45D-09
 IDIUse=1 WtCom= 1.00D+00 WtEn= 0.00D+00
 Coeff-Com: -0.613D-06-0.669D-05 0.148D-05 0.102D-04 0.131D-03 0.455D-03
 Coeff-Com:  0.529D-02 0.219D-01 0.136D+00 0.214D+00 0.622D+00
 Coeff:     -0.613D-06-0.669D-05 0.148D-05 0.102D-04 0.131D-03 0.455D-03
 Coeff:      0.529D-02 0.219D-01 0.136D+00 0.214D+00 0.622D+00
 Gap=     0.145 Goal=   None    Shift=    0.000
 RMSDP=5.74D-08 MaxDP=1.51D-06 DE=-2.36D-09 OVMax= 4.60D-06

 Cycle  12  Pass 1  IDiag  1:
 RMSU=  2.94D-08    CP:  1.00D+00  7.50D-01  6.97D-01  5.34D-01  6.61D-01
                    CP:  5.18D-01  7.50D-01  7.27D-01  8.55D-01  7.11D-01
                    CP:  7.71D-01
 E= -1020.45623658100     Delta-E=       -0.000000000059 Rises=F Damp=F
 DIIS: error= 2.21D-07 at cycle  12 NSaved=  12.
 NSaved=12 IEnMin=12 EnMin= -1020.45623658100     IErMin=12 ErrMin= 2.21D-07
 ErrMax= 2.21D-07  0.00D+00 EMaxC= 1.00D-01 BMatC= 2.09D-11 BMatP= 7.31D-11
 IDIUse=1 WtCom= 1.00D+00 WtEn= 0.00D+00
 Coeff-Com: -0.445D-07-0.487D-05-0.192D-04-0.354D-04-0.845D-04-0.794D-04
 Coeff-Com:  0.918D-03 0.713D-02 0.566D-01 0.998D-01 0.401D+00 0.435D+00
 Coeff:     -0.445D-07-0.487D-05-0.192D-04-0.354D-04-0.845D-04-0.794D-04
 Coeff:      0.918D-03 0.713D-02 0.566D-01 0.998D-01 0.401D+00 0.435D+00
 Gap=     0.145 Goal=   None    Shift=    0.000
 RMSDP=1.86D-08 MaxDP=6.23D-07 DE=-5.89D-11 OVMax= 2.17D-06

 Cycle  13  Pass 1  IDiag  1:
 RMSU=  9.10D-09    CP:  1.00D+00  7.50D-01  6.97D-01  5.34D-01  6.61D-01
                    CP:  5.18D-01  7.50D-01  7.26D-01  8.61D-01  7.12D-01
                    CP:  7.92D-01  6.22D-01
 E= -1020.45623658102     Delta-E=       -0.000000000018 Rises=F Damp=F
 DIIS: error= 6.40D-08 at cycle  13 NSaved=  13.
 NSaved=13 IEnMin=13 EnMin= -1020.45623658102     IErMin=13 ErrMin= 6.40D-08
 ErrMax= 6.40D-08  0.00D+00 EMaxC= 1.00D-01 BMatC= 1.20D-12 BMatP= 2.09D-11
 IDIUse=1 WtCom= 1.00D+00 WtEn= 0.00D+00
 Coeff-Com:  0.296D-07-0.254D-05-0.117D-04-0.225D-04-0.592D-04-0.724D-04
 Coeff-Com:  0.278D-03 0.311D-02 0.261D-01 0.468D-01 0.203D+00 0.264D+00
 Coeff-Com:  0.458D+00
 Coeff:      0.296D-07-0.254D-05-0.117D-04-0.225D-04-0.592D-04-0.724D-04
 Coeff:      0.278D-03 0.311D-02 0.261D-01 0.468D-01 0.203D+00 0.264D+00
 Coeff:      0.458D+00
 Gap=     0.145 Goal=   None    Shift=    0.000
 RMSDP=4.99D-09 MaxDP=1.50D-07 DE=-1.75D-11 OVMax= 6.58D-07

 Error on total polarization charges =  0.01777
 SCF Done:  E(RB-P86) =  -1020.45623658     A.U. after   13 cycles
            NFock= 13  Conv=0.50D-08     -V/T= 2.0041
 KE= 1.016258365130D+03 PE=-4.456743680716D+03 EE= 1.389085739308D+03
 Leave Link  502 at Sat Aug 21 09:32:59 2021, MaxMem=   104857600 cpu:            1013.8 elap:              42.8
 (Enter /sw/arch/RedHatEnterpriseServer7/EB_production/2020/software/Gaussian/g16.c01/l601.exe)
 Copying SCF densities to generalized density rwf, IOpCl= 0 IROHF=0.

 **********************************************************************

            Population analysis using the SCF Density.

 **********************************************************************

 Orbital symmetries:
       Occupied  (A) (A) (A) (A) (A) (A) (A) (A) (A) (A) (A) (A)
                 (A) (A) (A) (A) (A) (A) (A) (A) (A) (A) (A) (A)
                 (A) (A) (A) (A) (A) (A) (A) (A) (A) (A) (A) (A)
                 (A) (A) (A) (A) (A) (A) (A) (A) (A) (A) (A) (A)
                 (A) (A) (A) (A) (A) (A) (A) (A) (A) (A)
       Virtual   (A) (A) (A) (A) (A) (A) (A) (A) (A) (A) (A) (A)
                 (A) (A) (A) (A) (A) (A) (A) (A) (A) (A) (A) (A)
                 (A) (A) (A) (A) (A) (A) (A) (A) (A) (A) (A) (A)
                 (A) (A) (A) (A) (A) (A) (A) (A) (A) (A) (A) (A)
                 (A) (A) (A) (A) (A) (A) (A) (A) (A) (A) (A) (A)
                 (A) (A) (A) (A) (A) (A) (A) (A) (A) (A) (A) (A)
                 (A) (A) (A) (A) (A) (A) (A) (A) (A) (A) (A) (A)
                 (A) (A) (A) (A) (A) (A) (A) (A) (A) (A) (A) (A)
                 (A) (A) (A) (A) (A) (A) (A) (A) (A) (A) (A) (A)
                 (A) (A) (A) (A) (A) (A) (A) (A) (A) (A) (A) (A)
                 (A) (A) (A) (A) (A) (A) (A) (A) (A) (A) (A) (A)
                 (A) (A) (A) (A) (A) (A) (A) (A) (A) (A) (A) (A)
                 (A) (A) (A) (A) (A) (A) (A) (A) (A) (A) (A) (A)
                 (A) (A) (A) (A) (A) (A) (A) (A) (A) (A) (A) (A)
                 (A) (A) (A) (A) (A) (A) (A) (A) (A) (A) (A) (A)
                 (A) (A) (A) (A) (A) (A) (A) (A) (A) (A) (A) (A)
                 (A) (A) (A) (A) (A) (A) (A) (A) (A) (A) (A) (A)
                 (A) (A) (A) (A) (A) (A) (A) (A) (A) (A) (A) (A)
                 (A) (A) (A) (A) (A) (A) (A) (A) (A) (A) (A) (A)
                 (A) (A) (A) (A) (A) (A) (A) (A) (A) (A) (A) (A)
                 (A) (A) (A) (A) (A) (A) (A) (A) (A) (A) (A) (A)
                 (A) (A) (A) (A) (A) (A) (A) (A) (A) (A) (A) (A)
                 (A) (A) (A) (A) (A) (A) (A) (A) (A) (A) (A) (A)
                 (A) (A) (A) (A) (A) (A) (A) (A) (A) (A) (A) (A)
                 (A) (A) (A) (A) (A) (A) (A) (A) (A) (A) (A) (A)
                 (A) (A) (A) (A) (A) (A) (A) (A) (A) (A) (A) (A)
                 (A) (A) (A) (A) (A) (A) (A)
 The electronic state is 1-A.
 Alpha  occ. eigenvalues -- -100.64900 -18.77507 -14.15485  -9.96761  -9.96622
 Alpha  occ. eigenvalues --   -9.96557  -9.96104  -9.95197  -9.93145  -9.91706
 Alpha  occ. eigenvalues --   -9.91666  -9.91352  -9.91323  -9.91298  -9.08726
 Alpha  occ. eigenvalues --   -6.90583  -6.90529  -6.90520  -0.96691  -0.94736
 Alpha  occ. eigenvalues --   -0.79995  -0.72980  -0.71516  -0.69511  -0.68958
 Alpha  occ. eigenvalues --   -0.66575  -0.63703  -0.62255  -0.57604  -0.56355
 Alpha  occ. eigenvalues --   -0.54880  -0.50457  -0.49481  -0.49205  -0.46963
 Alpha  occ. eigenvalues --   -0.44200  -0.43312  -0.42392  -0.41422  -0.40483
 Alpha  occ. eigenvalues --   -0.39619  -0.39044  -0.38130  -0.37601  -0.36804
 Alpha  occ. eigenvalues --   -0.36142  -0.35666  -0.35041  -0.34339  -0.31780
 Alpha  occ. eigenvalues --   -0.31470  -0.30703  -0.24806  -0.24671  -0.23929
 Alpha  occ. eigenvalues --   -0.21763  -0.21437  -0.21290
 Alpha virt. eigenvalues --   -0.06840  -0.05909   0.00804   0.02054   0.02692
 Alpha virt. eigenvalues --    0.03262   0.04112   0.04265   0.04617   0.05249
 Alpha virt. eigenvalues --    0.05470   0.06365   0.07633   0.07907   0.08219
 Alpha virt. eigenvalues --    0.08649   0.09166   0.09964   0.10643   0.10916
 Alpha virt. eigenvalues --    0.11415   0.12748   0.12929   0.13745   0.13887
 Alpha virt. eigenvalues --    0.14002   0.15631   0.16086   0.17310   0.18929
 Alpha virt. eigenvalues --    0.19124   0.20385   0.20798   0.21302   0.21769
 Alpha virt. eigenvalues --    0.22113   0.22865   0.23340   0.24026   0.25042
 Alpha virt. eigenvalues --    0.25351   0.26582   0.26773   0.27755   0.27978
 Alpha virt. eigenvalues --    0.28630   0.29347   0.29772   0.30854   0.31290
 Alpha virt. eigenvalues --    0.31609   0.31894   0.32759   0.33789   0.34201
 Alpha virt. eigenvalues --    0.34984   0.36065   0.36801   0.37010   0.37760
 Alpha virt. eigenvalues --    0.37999   0.38514   0.39233   0.39908   0.40253
 Alpha virt. eigenvalues --    0.40392   0.40741   0.41518   0.42392   0.42530
 Alpha virt. eigenvalues --    0.42854   0.43484   0.44203   0.44566   0.44713
 Alpha virt. eigenvalues --    0.45433   0.46100   0.46357   0.47193   0.47601
 Alpha virt. eigenvalues --    0.48263   0.48605   0.48989   0.50573   0.50788
 Alpha virt. eigenvalues --    0.52331   0.53436   0.54571   0.55816   0.56829
 Alpha virt. eigenvalues --    0.57768   0.59253   0.60378   0.62034   0.62229
 Alpha virt. eigenvalues --    0.62894   0.64698   0.65588   0.66206   0.67646
 Alpha virt. eigenvalues --    0.69899   0.71168   0.73816   0.74949   0.79374
 Alpha virt. eigenvalues --    0.79929   0.81472   0.85038   0.86056   0.86777
 Alpha virt. eigenvalues --    0.88885   0.92280   0.95855   1.03354   1.07755
 Alpha virt. eigenvalues --    1.11492   1.12081   1.12872   1.15345   1.15981
 Alpha virt. eigenvalues --    1.17055   1.17732   1.19290   1.19346   1.20067
 Alpha virt. eigenvalues --    1.20825   1.22159   1.22662   1.23421   1.23651
 Alpha virt. eigenvalues --    1.25172   1.25545   1.26259   1.26768   1.27380
 Alpha virt. eigenvalues --    1.27778   1.29426   1.31403   1.32602   1.33789
 Alpha virt. eigenvalues --    1.33862   1.35717   1.36177   1.36766   1.37052
 Alpha virt. eigenvalues --    1.38194   1.38481   1.38893   1.39395   1.40316
 Alpha virt. eigenvalues --    1.42435   1.43227   1.44249   1.45282   1.45855
 Alpha virt. eigenvalues --    1.46292   1.46577   1.46985   1.48469   1.49604
 Alpha virt. eigenvalues --    1.51033   1.53733   1.56019   1.56749   1.57012
 Alpha virt. eigenvalues --    1.58777   1.60637   1.61027   1.61628   1.62387
 Alpha virt. eigenvalues --    1.64852   1.65427   1.66730   1.67474   1.67937
 Alpha virt. eigenvalues --    1.68467   1.69827   1.69871   1.70791   1.71002
 Alpha virt. eigenvalues --    1.71646   1.71931   1.73344   1.73601   1.74741
 Alpha virt. eigenvalues --    1.75066   1.77075   1.77318   1.78581   1.79095
 Alpha virt. eigenvalues --    1.79966   1.80934   1.82860   1.83216   1.83506
 Alpha virt. eigenvalues --    1.84691   1.85342   1.86763   1.88333   1.89003
 Alpha virt. eigenvalues --    1.89491   1.90561   1.92751   1.93333   1.94405
 Alpha virt. eigenvalues --    1.95530   1.97487   2.00050   2.01457   2.03936
 Alpha virt. eigenvalues --    2.05197   2.08845   2.09484   2.09970   2.15020
 Alpha virt. eigenvalues --    2.15693   2.18313   2.19189   2.19868   2.21843
 Alpha virt. eigenvalues --    2.22616   2.23012   2.24716   2.24888   2.26691
 Alpha virt. eigenvalues --    2.27602   2.27961   2.28469   2.29777   2.31515
 Alpha virt. eigenvalues --    2.32112   2.32585   2.32798   2.34871   2.37419
 Alpha virt. eigenvalues --    2.39099   2.39840   2.41895   2.42549   2.42978
 Alpha virt. eigenvalues --    2.44355   2.45322   2.45832   2.48228   2.50694
 Alpha virt. eigenvalues --    2.52041   2.53121   2.54316   2.55577   2.56840
 Alpha virt. eigenvalues --    2.57188   2.58744   2.59499   2.61456   2.62107
 Alpha virt. eigenvalues --    2.62279   2.64203   2.65207   2.66861   2.68057
 Alpha virt. eigenvalues --    2.70425   2.71002   2.73997   2.75803   2.76768
 Alpha virt. eigenvalues --    2.80035   2.84960   2.86097   2.88058   2.89070
 Alpha virt. eigenvalues --    2.91286   2.92122   2.94365   2.94703   2.96584
 Alpha virt. eigenvalues --    2.98467   3.00327   3.02250   3.03064   3.04539
 Alpha virt. eigenvalues --    3.06528   3.08830   3.10661   3.11622   3.12927
 Alpha virt. eigenvalues --    3.14059   3.17072   3.19241   3.21127   3.24147
 Alpha virt. eigenvalues --    3.24757   3.27423   3.29508   3.31051   3.32226
 Alpha virt. eigenvalues --    3.33569   3.34693   3.36402   3.43975   3.57685
 Alpha virt. eigenvalues --    3.61032   3.62669   3.69453   3.89870   4.19307
 Alpha virt. eigenvalues --   21.09579  21.59567  21.60172  21.67915  21.79861
 Alpha virt. eigenvalues --   21.81108  21.82415  21.85767  21.86366  21.88986
 Alpha virt. eigenvalues --   21.98706  24.25724  31.70108  43.19460
          Condensed to atoms (all electrons):
               1          2          3          4          5          6
     1  C    5.315327   0.251481  -0.100542  -0.058183  -0.027060   0.050911
     2  N    0.251481   6.538382   0.261004   0.130123  -0.008692  -0.023942
     3  C   -0.100542   0.261004   5.241171  -0.113422  -0.013764  -0.002076
     4  C   -0.058183   0.130123  -0.113422   5.732719   0.180792  -0.025918
     5  C   -0.027060  -0.008692  -0.013764   0.180792   5.015594   0.256607
     6  O    0.050911  -0.023942  -0.002076  -0.025918   0.256607   7.942609
     7  C   -0.165046   0.186685  -0.084809  -0.118154   0.018154  -0.005826
     8  C    0.026150  -0.040253   0.006196   0.001827   0.006774   0.000417
     9  C   -0.000201  -0.011873   0.005988  -0.017491   0.001620  -0.000050
    10  C    0.000682   0.002825   0.000131   0.005244  -0.000783   0.000001
    11  C   -0.000122  -0.000944  -0.000016  -0.002451   0.000087  -0.000000
    12  C    0.000488   0.002162  -0.003573   0.003040  -0.000313   0.000001
    13  C   -0.001348  -0.011143   0.003101  -0.001529   0.000743   0.000007
    14  Cl  -0.045029   0.000797  -0.000299  -0.004770  -0.011911  -0.018777
    15  H    0.375581  -0.013010  -0.008902   0.013058  -0.002467   0.002586
    16  H    0.344236  -0.025731   0.008427   0.009211  -0.005464  -0.005509
    17  H    0.380710  -0.010086  -0.006741  -0.023195   0.009650  -0.003784
    18  H   -0.004615  -0.023573   0.383530   0.010281   0.000570  -0.000034
    19  H    0.010130  -0.010642   0.389850  -0.006453  -0.002247   0.000081
    20  H   -0.009155  -0.015903   0.381278  -0.004564   0.000249  -0.000244
    21  H   -0.016302  -0.031086   0.011392   0.325504   0.002892  -0.008264
    22  H    0.012242  -0.015158  -0.010926   0.388087  -0.033179   0.005659
    23  H   -0.021480   0.008586   0.008202  -0.085733   0.437700  -0.054481
    24  H    0.005547   0.001998  -0.001104   0.000122   0.372300  -0.051223
    25  H   -0.006732  -0.001420   0.000464   0.004806  -0.065257   0.301276
    26  H    0.001322  -0.023460   0.009176  -0.011536   0.000666   0.000583
    27  H   -0.003296  -0.018001  -0.021199   0.010028  -0.000445   0.000007
    28  H    0.001103  -0.000785  -0.000459  -0.006019   0.000335   0.000022
    29  H   -0.000003  -0.000007  -0.000000   0.000188  -0.000007   0.000000
    30  H   -0.000000  -0.000001   0.000003  -0.000017   0.000001  -0.000000
    31  H   -0.000001  -0.000001  -0.000006   0.000010  -0.000001   0.000000
    32  H   -0.000510  -0.002738   0.003728  -0.000217   0.000036  -0.000000
               7          8          9         10         11         12
     1  C   -0.165046   0.026150  -0.000201   0.000682  -0.000122   0.000488
     2  N    0.186685  -0.040253  -0.011873   0.002825  -0.000944   0.002162
     3  C   -0.084809   0.006196   0.005988   0.000131  -0.000016  -0.003573
     4  C   -0.118154   0.001827  -0.017491   0.005244  -0.002451   0.003040
     5  C    0.018154   0.006774   0.001620  -0.000783   0.000087  -0.000313
     6  O   -0.005826   0.000417  -0.000050   0.000001  -0.000000   0.000001
     7  C    5.907522  -0.024213  -0.079333   0.015448   0.002520   0.021563
     8  C   -0.024213   5.972344   0.083111   0.183287  -0.221646   0.157501
     9  C   -0.079333   0.083111   5.464178   0.153884   0.140805  -0.259044
    10  C    0.015448   0.183287   0.153884   5.300810   0.241979   0.140079
    11  C    0.002520  -0.221646   0.140805   0.241979   5.249282   0.256905
    12  C    0.021563   0.157501  -0.259044   0.140079   0.256905   5.276181
    13  C   -0.063327   0.150134   0.179903  -0.243254   0.116141   0.191649
    14  Cl  -0.035899  -0.005595  -0.002207  -0.000066   0.000048  -0.000017
    15  H   -0.014711  -0.002114  -0.000440   0.000045  -0.000016   0.000087
    16  H   -0.000630  -0.000811   0.000507   0.000061  -0.000011   0.000023
    17  H    0.012859  -0.001615   0.000034  -0.000005   0.000001  -0.000003
    18  H    0.008936  -0.012420  -0.000698   0.000009  -0.000004   0.000504
    19  H   -0.024418   0.013245  -0.002233   0.002150  -0.001338   0.003215
    20  H    0.010520   0.001730   0.000156  -0.000097   0.000028  -0.000095
    21  H    0.023114  -0.022324   0.010418  -0.004518   0.001081  -0.000901
    22  H   -0.032069   0.013702  -0.009256   0.002981  -0.001007   0.002011
    23  H    0.000367  -0.000097   0.000113  -0.000048   0.000013  -0.000016
    24  H    0.000002  -0.000173  -0.000274   0.000118  -0.000019   0.000019
    25  H    0.001687   0.000091  -0.000048  -0.000014  -0.000001   0.000002
    26  H    0.352710  -0.037573   0.011152  -0.000624   0.000501  -0.001379
    27  H    0.431139  -0.067489   0.000178  -0.000367  -0.000110   0.001031
    28  H   -0.016051  -0.111547   0.448560  -0.060058   0.023890  -0.010035
    29  H   -0.000932   0.022198  -0.060313   0.436141  -0.068522   0.016821
    30  H   -0.000137  -0.006371   0.020791  -0.064883   0.437241  -0.065166
    31  H   -0.001095   0.018810  -0.002951   0.015641  -0.063713   0.432343
    32  H   -0.007212  -0.078445   0.021123  -0.006858   0.017253  -0.055801
              13         14         15         16         17         18
     1  C   -0.001348  -0.045029   0.375581   0.344236   0.380710  -0.004615
     2  N   -0.011143   0.000797  -0.013010  -0.025731  -0.010086  -0.023573
     3  C    0.003101  -0.000299  -0.008902   0.008427  -0.006741   0.383530
     4  C   -0.001529  -0.004770   0.013058   0.009211  -0.023195   0.010281
     5  C    0.000743  -0.011911  -0.002467  -0.005464   0.009650   0.000570
     6  O    0.000007  -0.018777   0.002586  -0.005509  -0.003784  -0.000034
     7  C   -0.063327  -0.035899  -0.014711  -0.000630   0.012859   0.008936
     8  C    0.150134  -0.005595  -0.002114  -0.000811  -0.001615  -0.012420
     9  C    0.179903  -0.002207  -0.000440   0.000507   0.000034  -0.000698
    10  C   -0.243254  -0.000066   0.000045   0.000061  -0.000005   0.000009
    11  C    0.116141   0.000048  -0.000016  -0.000011   0.000001  -0.000004
    12  C    0.191649  -0.000017   0.000087   0.000023  -0.000003   0.000504
    13  C    5.366389  -0.000036   0.000688  -0.000380  -0.000045   0.001825
    14  Cl  -0.000036  17.742314   0.001365   0.049453   0.001186   0.000013
    15  H    0.000688   0.001365   0.507384  -0.017907  -0.023878   0.001996
    16  H   -0.000380   0.049453  -0.017907   0.491299  -0.015148  -0.000019
    17  H   -0.000045   0.001186  -0.023878  -0.015148   0.472960  -0.000503
    18  H    0.001825   0.000013   0.001996  -0.000019  -0.000503   0.466499
    19  H   -0.013083   0.000023   0.000281  -0.000371   0.000082  -0.019387
    20  H    0.001080  -0.000004  -0.001081   0.000384   0.003445  -0.017222
    21  H    0.002575   0.022423  -0.001067  -0.002197   0.000692  -0.000193
    22  H   -0.001415   0.001803  -0.000258  -0.000507  -0.000046   0.000330
    23  H    0.000093   0.000014  -0.001263   0.000912  -0.002571   0.000230
    24  H   -0.000058   0.000150   0.000151  -0.000196   0.000385  -0.000023
    25  H    0.000000   0.058395   0.000007   0.000550  -0.001302   0.000022
    26  H    0.001806   0.042129  -0.001515   0.001395   0.000172   0.000546
    27  H    0.007341   0.000765   0.005935  -0.001617   0.000251   0.000525
    28  H    0.025900   0.017310  -0.000001  -0.000681  -0.000004  -0.000010
    29  H   -0.003765  -0.000041   0.000000   0.000001   0.000000   0.000000
    30  H    0.020240   0.000000  -0.000000  -0.000000  -0.000000   0.000000
    31  H   -0.058467  -0.000000   0.000000   0.000000   0.000000  -0.000008
    32  H    0.448147   0.000004  -0.000151  -0.000012   0.000009  -0.000782
              19         20         21         22         23         24
     1  C    0.010130  -0.009155  -0.016302   0.012242  -0.021480   0.005547
     2  N   -0.010642  -0.015903  -0.031086  -0.015158   0.008586   0.001998
     3  C    0.389850   0.381278   0.011392  -0.010926   0.008202  -0.001104
     4  C   -0.006453  -0.004564   0.325504   0.388087  -0.085733   0.000122
     5  C   -0.002247   0.000249   0.002892  -0.033179   0.437700   0.372300
     6  O    0.000081  -0.000244  -0.008264   0.005659  -0.054481  -0.051223
     7  C   -0.024418   0.010520   0.023114  -0.032069   0.000367   0.000002
     8  C    0.013245   0.001730  -0.022324   0.013702  -0.000097  -0.000173
     9  C   -0.002233   0.000156   0.010418  -0.009256   0.000113  -0.000274
    10  C    0.002150  -0.000097  -0.004518   0.002981  -0.000048   0.000118
    11  C   -0.001338   0.000028   0.001081  -0.001007   0.000013  -0.000019
    12  C    0.003215  -0.000095  -0.000901   0.002011  -0.000016   0.000019
    13  C   -0.013083   0.001080   0.002575  -0.001415   0.000093  -0.000058
    14  Cl   0.000023  -0.000004   0.022423   0.001803   0.000014   0.000150
    15  H    0.000281  -0.001081  -0.001067  -0.000258  -0.001263   0.000151
    16  H   -0.000371   0.000384  -0.002197  -0.000507   0.000912  -0.000196
    17  H    0.000082   0.003445   0.000692  -0.000046  -0.002571   0.000385
    18  H   -0.019387  -0.017222  -0.000193   0.000330   0.000230  -0.000023
    19  H    0.462090  -0.017625  -0.000103   0.004561  -0.000898   0.000247
    20  H   -0.017625   0.468529  -0.000032  -0.000783   0.004991  -0.000377
    21  H   -0.000103  -0.000032   0.477170  -0.017613   0.007299  -0.008736
    22  H    0.004561  -0.000783  -0.017613   0.470885   0.001958  -0.002161
    23  H   -0.000898   0.004991   0.007299   0.001958   0.581908  -0.046178
    24  H    0.000247  -0.000377  -0.008736  -0.002161  -0.046178   0.572994
    25  H   -0.000004   0.000002   0.002933   0.001433   0.008407   0.001120
    26  H   -0.000267  -0.000234  -0.002556   0.001403   0.000035  -0.000091
    27  H    0.001208   0.000081   0.000391  -0.000233  -0.000016   0.000019
    28  H   -0.000148   0.000009   0.007172   0.000233  -0.000013   0.000081
    29  H    0.000013  -0.000000  -0.000173   0.000019  -0.000000   0.000001
    30  H   -0.000011   0.000000   0.000006  -0.000004   0.000000  -0.000000
    31  H    0.000077  -0.000001  -0.000002   0.000010  -0.000000   0.000000
    32  H   -0.002308   0.000265   0.000048  -0.000032   0.000007  -0.000002
              25         26         27         28         29         30
     1  C   -0.006732   0.001322  -0.003296   0.001103  -0.000003  -0.000000
     2  N   -0.001420  -0.023460  -0.018001  -0.000785  -0.000007  -0.000001
     3  C    0.000464   0.009176  -0.021199  -0.000459  -0.000000   0.000003
     4  C    0.004806  -0.011536   0.010028  -0.006019   0.000188  -0.000017
     5  C   -0.065257   0.000666  -0.000445   0.000335  -0.000007   0.000001
     6  O    0.301276   0.000583   0.000007   0.000022   0.000000  -0.000000
     7  C    0.001687   0.352710   0.431139  -0.016051  -0.000932  -0.000137
     8  C    0.000091  -0.037573  -0.067489  -0.111547   0.022198  -0.006371
     9  C   -0.000048   0.011152   0.000178   0.448560  -0.060313   0.020791
    10  C   -0.000014  -0.000624  -0.000367  -0.060058   0.436141  -0.064883
    11  C   -0.000001   0.000501  -0.000110   0.023890  -0.068522   0.437241
    12  C    0.000002  -0.001379   0.001031  -0.010035   0.016821  -0.065166
    13  C    0.000000   0.001806   0.007341   0.025900  -0.003765   0.020240
    14  Cl   0.058395   0.042129   0.000765   0.017310  -0.000041   0.000000
    15  H    0.000007  -0.001515   0.005935  -0.000001   0.000000  -0.000000
    16  H    0.000550   0.001395  -0.001617  -0.000681   0.000001  -0.000000
    17  H   -0.001302   0.000172   0.000251  -0.000004   0.000000  -0.000000
    18  H    0.000022   0.000546   0.000525  -0.000010   0.000000   0.000000
    19  H   -0.000004  -0.000267   0.001208  -0.000148   0.000013  -0.000011
    20  H    0.000002  -0.000234   0.000081   0.000009  -0.000000   0.000000
    21  H    0.002933  -0.002556   0.000391   0.007172  -0.000173   0.000006
    22  H    0.001433   0.001403  -0.000233   0.000233   0.000019  -0.000004
    23  H    0.008407   0.000035  -0.000016  -0.000013  -0.000000   0.000000
    24  H    0.001120  -0.000091   0.000019   0.000081   0.000001  -0.000000
    25  H    0.444619  -0.001706  -0.000005  -0.000196   0.000000  -0.000000
    26  H   -0.001706   0.451611  -0.008681   0.003663  -0.000055   0.000004
    27  H   -0.000005  -0.008681   0.434265   0.000505   0.000014  -0.000000
    28  H   -0.000196   0.003663   0.000505   0.552693  -0.008558  -0.000062
    29  H    0.000000  -0.000055   0.000014  -0.008558   0.532899  -0.007107
    30  H   -0.000000   0.000004  -0.000000  -0.000062  -0.007107   0.527617
    31  H    0.000000   0.000014  -0.000008  -0.000019  -0.000154  -0.006995
    32  H   -0.000001   0.000425  -0.000679   0.000260  -0.000003  -0.000105
              31         32
     1  C   -0.000001  -0.000510
     2  N   -0.000001  -0.002738
     3  C   -0.000006   0.003728
     4  C    0.000010  -0.000217
     5  C   -0.000001   0.000036
     6  O    0.000000  -0.000000
     7  C   -0.001095  -0.007212
     8  C    0.018810  -0.078445
     9  C   -0.002951   0.021123
    10  C    0.015641  -0.006858
    11  C   -0.063713   0.017253
    12  C    0.432343  -0.055801
    13  C   -0.058467   0.448147
    14  Cl  -0.000000   0.000004
    15  H    0.000000  -0.000151
    16  H    0.000000  -0.000012
    17  H    0.000000   0.000009
    18  H   -0.000008  -0.000782
    19  H    0.000077  -0.002308
    20  H   -0.000001   0.000265
    21  H   -0.000002   0.000048
    22  H    0.000010  -0.000032
    23  H   -0.000000   0.000007
    24  H    0.000000  -0.000002
    25  H    0.000000  -0.000001
    26  H    0.000014   0.000425
    27  H   -0.000008  -0.000679
    28  H   -0.000019   0.000260
    29  H   -0.000154  -0.000003
    30  H   -0.006995  -0.000105
    31  H    0.530849  -0.005740
    32  H   -0.005740   0.517989
 Mulliken charges:
               1
     1  C   -0.316283
     2  N   -0.095597
     3  C   -0.345803
     4  C   -0.335388
     5  C   -0.133181
     6  O   -0.360638
     7  C   -0.319363
     8  C   -0.024829
     9  C   -0.096108
    10  C   -0.119943
    11  C   -0.127853
    12  C   -0.109281
    13  C   -0.119913
    14  Cl  -0.813538
    15  H    0.179618
    16  H    0.170733
    17  H    0.206491
    18  H    0.203675
    19  H    0.214284
    20  H    0.194671
    21  H    0.220961
    22  H    0.217332
    23  H    0.151959
    24  H    0.155363
    25  H    0.250871
    26  H    0.210366
    27  H    0.228466
    28  H    0.132912
    29  H    0.141345
    30  H    0.144958
    31  H    0.141409
    32  H    0.152304
 Sum of Mulliken charges =  -0.00000
 Mulliken charges with hydrogens summed into heavy atoms:
               1
     1  C    0.240558
     2  N   -0.095597
     3  C    0.266827
     4  C    0.102905
     5  C    0.174142
     6  O   -0.109767
     7  C    0.119469
     8  C   -0.024829
     9  C    0.036803
    10  C    0.021402
    11  C    0.017105
[...]
 Alpha virt. eigenvalues --    2.51922   2.53356   2.55701   2.57011   2.57467
 Alpha virt. eigenvalues --    2.59893   2.61333   2.61794   2.62238   2.63216
 Alpha virt. eigenvalues --    2.64658   2.66055   2.67156   2.68691   2.69455
 Alpha virt. eigenvalues --    2.70739   2.72294   2.73353   2.75672   2.78569
 Alpha virt. eigenvalues --    2.83372   2.85417   2.87125   2.88461   2.89629
 Alpha virt. eigenvalues --    2.91336   2.92838   2.93594   2.95920   2.96380
 Alpha virt. eigenvalues --    2.99082   3.01530   3.03117   3.04802   3.06258
 Alpha virt. eigenvalues --    3.08904   3.09392   3.12494   3.13600   3.16040
 Alpha virt. eigenvalues --    3.17952   3.20110   3.20998   3.22639   3.25214
 Alpha virt. eigenvalues --    3.28303   3.29008   3.31589   3.32468   3.32959
 Alpha virt. eigenvalues --    3.33943   3.37040   3.40896   3.43798   3.56828
 Alpha virt. eigenvalues --    3.59281   3.61583   3.68697   3.88669   4.15915
 Alpha virt. eigenvalues --   21.10546  21.59016  21.59922  21.69865  21.81805
 Alpha virt. eigenvalues --   21.83123  21.84832  21.86606  21.89110  21.90207
 Alpha virt. eigenvalues --   21.98352  24.27466  31.72564  43.18812
          Condensed to atoms (all electrons):
               1          2          3          4          5          6
     1  C    5.185779   0.261675  -0.086246  -0.089088  -0.004897   0.016185
     2  N    0.261675   6.681930   0.201053   0.103370  -0.027395  -0.008705
     3  C   -0.086246   0.201053   5.239159  -0.090408   0.010107  -0.012426
     4  C   -0.089088   0.103370  -0.090408   5.796806   0.123341  -0.047705
     5  C   -0.004897  -0.027395   0.010107   0.123341   5.045736   0.258844
     6  O    0.016185  -0.008705  -0.012426  -0.047705   0.258844   8.060137
     7  C   -0.131058   0.185184  -0.049636  -0.134175   0.008259  -0.002669
     8  C    0.024240  -0.031431  -0.013110   0.008280   0.007662   0.000500
     9  C   -0.001406  -0.013956   0.007698   0.000233  -0.000293  -0.000100
    10  C    0.000322   0.000915   0.001057  -0.002967  -0.000464   0.000001
    11  C   -0.000068  -0.000503  -0.000074   0.000356   0.000007  -0.000000
    12  C    0.000343   0.001467  -0.003996  -0.000046  -0.000142   0.000002
    13  C   -0.000591  -0.011414  -0.000626   0.011726   0.000679   0.000005
    14  Cl  -0.015912  -0.001870  -0.000411  -0.019173   0.010961  -0.060671
    15  H    0.378823  -0.015493  -0.010090   0.009619  -0.000546   0.002353
    16  H    0.363681  -0.019307   0.010745  -0.000970  -0.003889  -0.005863
    17  H    0.387705  -0.011961  -0.007906  -0.015193  -0.005728   0.015527
    18  H   -0.005671  -0.022718   0.385599   0.010578   0.000208   0.000032
    19  H    0.008736  -0.011044   0.381064   0.000407  -0.006903   0.000745
    20  H   -0.005345  -0.015364   0.389581  -0.020444   0.006545   0.003906
    21  H   -0.017943  -0.024077   0.013033   0.357992  -0.027336  -0.013427
    22  H    0.011709  -0.018884  -0.012029   0.366551   0.004139   0.006168
    23  H   -0.000945  -0.014414   0.017558  -0.051467   0.423175  -0.046750
    24  H    0.001578   0.009437  -0.002531  -0.052687   0.395309  -0.043971
    25  H   -0.000461  -0.003061   0.001257   0.009887  -0.041399   0.275780
    26  H   -0.001853  -0.020191   0.007955  -0.017811  -0.000043   0.000096
    27  H   -0.005429  -0.018124  -0.018521   0.009840  -0.000541   0.000048
    28  H   -0.000255  -0.001367  -0.000400   0.001846   0.000665   0.000029
    29  H   -0.000002  -0.000005   0.000002   0.000003  -0.000009  -0.000000
    30  H   -0.000000   0.000000   0.000001   0.000001   0.000001  -0.000000
    31  H   -0.000001  -0.000001  -0.000047  -0.000003  -0.000000   0.000000
    32  H   -0.000466  -0.002152   0.003683   0.000191   0.000012  -0.000001
               7          8          9         10         11         12
     1  C   -0.131058   0.024240  -0.001406   0.000322  -0.000068   0.000343
     2  N    0.185184  -0.031431  -0.013956   0.000915  -0.000503   0.001467
     3  C   -0.049636  -0.013110   0.007698   0.001057  -0.000074  -0.003996
     4  C   -0.134175   0.008280   0.000233  -0.002967   0.000356  -0.000046
     5  C    0.008259   0.007662  -0.000293  -0.000464   0.000007  -0.000142
     6  O   -0.002669   0.000500  -0.000100   0.000001  -0.000000   0.000002
     7  C    5.741551   0.028748  -0.075600   0.027489   0.000190   0.019176
     8  C    0.028748   5.723889   0.221171   0.095423  -0.160719   0.098887
     9  C   -0.075600   0.221171   5.332294   0.240473   0.066672  -0.183338
    10  C    0.027489   0.095423   0.240473   5.265507   0.289710   0.079734
    11  C    0.000190  -0.160719   0.066672   0.289710   5.231206   0.292374
    12  C    0.019176   0.098887  -0.183338   0.079734   0.292374   5.256188
    13  C   -0.087151   0.238230   0.098291  -0.189914   0.069868   0.239851
    14  Cl  -0.003209   0.000785  -0.000448  -0.000023   0.000001  -0.000001
    15  H   -0.014582   0.001187  -0.000376   0.000004  -0.000005   0.000066
    16  H   -0.005562  -0.000765   0.000872   0.000012   0.000005  -0.000022
    17  H    0.012386  -0.001702  -0.000044  -0.000003  -0.000000   0.000002
    18  H    0.004962  -0.009483  -0.000256  -0.000069   0.000049   0.000310
    19  H   -0.024091   0.012700   0.000091   0.001354  -0.000911   0.002067
    20  H    0.007733   0.001315  -0.000190  -0.000037  -0.000006   0.000071
    21  H    0.012213  -0.015947   0.004683  -0.000241   0.000224  -0.000254
    22  H   -0.037953   0.026031  -0.012319  -0.000949  -0.000851   0.001185
    23  H   -0.001055  -0.000637   0.000304  -0.000058   0.000030  -0.000055
    24  H   -0.000200   0.000335  -0.000298   0.000063  -0.000023   0.000030
    25  H    0.000278  -0.000125   0.000061   0.000002  -0.000000   0.000000
    26  H    0.412159  -0.054783   0.008686   0.000051   0.000239  -0.000934
    27  H    0.404988  -0.040141   0.000379  -0.000330  -0.000206   0.001703
    28  H   -0.018992  -0.066145   0.448753  -0.062334   0.016850  -0.006020
    29  H   -0.000813   0.017438  -0.059014   0.436149  -0.063703   0.015208
    30  H   -0.000126  -0.005827   0.018500  -0.063122   0.438760  -0.063210
    31  H   -0.000943   0.017111  -0.002550   0.014891  -0.062792   0.435036
    32  H   -0.008353  -0.068793   0.018466  -0.005702   0.015804  -0.058790
              13         14         15         16         17         18
     1  C   -0.000591  -0.015912   0.378823   0.363681   0.387705  -0.005671
     2  N   -0.011414  -0.001870  -0.015493  -0.019307  -0.011961  -0.022718
     3  C   -0.000626  -0.000411  -0.010090   0.010745  -0.007906   0.385599
     4  C    0.011726  -0.019173   0.009619  -0.000970  -0.015193   0.010578
     5  C    0.000679   0.010961  -0.000546  -0.003889  -0.005728   0.000208
     6  O    0.000005  -0.060671   0.002353  -0.005863   0.015527   0.000032
     7  C   -0.087151  -0.003209  -0.014582  -0.005562   0.012386   0.004962
     8  C    0.238230   0.000785   0.001187  -0.000765  -0.001702  -0.009483
     9  C    0.098291  -0.000448  -0.000376   0.000872  -0.000044  -0.000256
    10  C   -0.189914  -0.000023   0.000004   0.000012  -0.000003  -0.000069
    11  C    0.069868   0.000001  -0.000005   0.000005  -0.000000   0.000049
    12  C    0.239851  -0.000001   0.000066  -0.000022   0.000002   0.000310
    13  C    5.330940   0.000014   0.000715  -0.000057  -0.000102   0.002226
    14  Cl   0.000014  17.777055   0.000929   0.024835   0.000378   0.000002
    15  H    0.000715   0.000929   0.491984  -0.019717  -0.017018   0.003375
    16  H   -0.000057   0.024835  -0.019717   0.509134  -0.022957  -0.000088
    17  H   -0.000102   0.000378  -0.017018  -0.022957   0.470969  -0.000268
    18  H    0.002226   0.000002   0.003375  -0.000088  -0.000268   0.463056
    19  H   -0.009815   0.000014   0.000239  -0.000484   0.000372  -0.019209
    20  H    0.000567   0.000015   0.000191  -0.000170   0.003332  -0.018226
    21  H    0.000445   0.026364  -0.000692   0.004035   0.000869  -0.000405
    22  H    0.002574   0.000612  -0.000049  -0.000251  -0.000407  -0.000122
    23  H    0.000269   0.000147  -0.000215  -0.000013  -0.001996   0.000252
    24  H   -0.000115   0.003011   0.000111  -0.000445   0.000993  -0.000004
    25  H    0.000000   0.081606  -0.000150  -0.002236  -0.002644   0.000020
    26  H    0.002696   0.003054  -0.001309   0.005203  -0.000349   0.000363
    27  H    0.005418   0.000096   0.008317  -0.001545   0.000429   0.001070
    28  H    0.020190   0.000716   0.000020  -0.000021  -0.000002   0.000008
    29  H   -0.002903  -0.000001   0.000000   0.000000   0.000000  -0.000000
    30  H    0.018781   0.000000  -0.000000   0.000000  -0.000000   0.000000
    31  H   -0.058364  -0.000000   0.000000  -0.000000   0.000000  -0.000009
    32  H    0.446994   0.000000  -0.000091   0.000023  -0.000003  -0.000423
              19         20         21         22         23         24
     1  C    0.008736  -0.005345  -0.017943   0.011709  -0.000945   0.001578
     2  N   -0.011044  -0.015364  -0.024077  -0.018884  -0.014414   0.009437
     3  C    0.381064   0.389581   0.013033  -0.012029   0.017558  -0.002531
     4  C    0.000407  -0.020444   0.357992   0.366551  -0.051467  -0.052687
     5  C   -0.006903   0.006545  -0.027336   0.004139   0.423175   0.395309
     6  O    0.000745   0.003906  -0.013427   0.006168  -0.046750  -0.043971
     7  C   -0.024091   0.007733   0.012213  -0.037953  -0.001055  -0.000200
     8  C    0.012700   0.001315  -0.015947   0.026031  -0.000637   0.000335
     9  C    0.000091  -0.000190   0.004683  -0.012319   0.000304  -0.000298
    10  C    0.001354  -0.000037  -0.000241  -0.000949  -0.000058   0.000063
    11  C   -0.000911  -0.000006   0.000224  -0.000851   0.000030  -0.000023
    12  C    0.002067   0.000071  -0.000254   0.001185  -0.000055   0.000030
    13  C   -0.009815   0.000567   0.000445   0.002574   0.000269  -0.000115
    14  Cl   0.000014   0.000015   0.026364   0.000612   0.000147   0.003011
    15  H    0.000239   0.000191  -0.000692  -0.000049  -0.000215   0.000111
    16  H   -0.000484  -0.000170   0.004035  -0.000251  -0.000013  -0.000445
    17  H    0.000372   0.003332   0.000869  -0.000407  -0.001996   0.000993
    18  H   -0.019209  -0.018226  -0.000405  -0.000122   0.000252  -0.000004
    19  H    0.461841  -0.015507  -0.000309   0.003128  -0.002353   0.000498
    20  H   -0.015507   0.458070  -0.000396   0.000776  -0.006905   0.000743
    21  H   -0.000309  -0.000396   0.492496  -0.017904   0.005249  -0.005835
    22  H    0.003128   0.000776  -0.017904   0.453824  -0.000072   0.002394
    23  H   -0.002353  -0.006905   0.005249  -0.000072   0.540151  -0.040319
    24  H    0.000498   0.000743  -0.005835   0.002394  -0.040319   0.580462
    25  H   -0.000053  -0.000370  -0.002631  -0.000373   0.008353  -0.007957
    26  H   -0.000304  -0.000298   0.004044   0.001314   0.000045  -0.000084
    27  H    0.001630   0.000129  -0.000062  -0.000174  -0.000023   0.000031
    28  H   -0.000051   0.000003  -0.000754   0.000801   0.000021  -0.000013
    29  H    0.000007   0.000000  -0.000024   0.000003  -0.000001   0.000001
    30  H   -0.000007  -0.000000   0.000001  -0.000002   0.000000  -0.000000
    31  H    0.000061   0.000001  -0.000001   0.000007  -0.000000   0.000000
    32  H   -0.001583   0.000112   0.000020  -0.000002   0.000014  -0.000003
              25         26         27         28         29         30
     1  C   -0.000461  -0.001853  -0.005429  -0.000255  -0.000002  -0.000000
     2  N   -0.003061  -0.020191  -0.018124  -0.001367  -0.000005   0.000000
     3  C    0.001257   0.007955  -0.018521  -0.000400   0.000002   0.000001
     4  C    0.009887  -0.017811   0.009840   0.001846   0.000003   0.000001
     5  C   -0.041399  -0.000043  -0.000541   0.000665  -0.000009   0.000001
     6  O    0.275780   0.000096   0.000048   0.000029  -0.000000  -0.000000
     7  C    0.000278   0.412159   0.404988  -0.018992  -0.000813  -0.000126
     8  C   -0.000125  -0.054783  -0.040141  -0.066145   0.017438  -0.005827
     9  C    0.000061   0.008686   0.000379   0.448753  -0.059014   0.018500
    10  C    0.000002   0.000051  -0.000330  -0.062334   0.436149  -0.063122
    11  C   -0.000000   0.000239  -0.000206   0.016850  -0.063703   0.438760
    12  C    0.000000  -0.000934   0.001703  -0.006020   0.015208  -0.063210
    13  C    0.000000   0.002696   0.005418   0.020190  -0.002903   0.018781
    14  Cl   0.081606   0.003054   0.000096   0.000716  -0.000001   0.000000
    15  H   -0.000150  -0.001309   0.008317   0.000020   0.000000  -0.000000
    16  H   -0.002236   0.005203  -0.001545  -0.000021   0.000000   0.000000
    17  H   -0.002644  -0.000349   0.000429  -0.000002   0.000000  -0.000000
    18  H    0.000020   0.000363   0.001070   0.000008  -0.000000   0.000000
    19  H   -0.000053  -0.000304   0.001630  -0.000051   0.000007  -0.000007
    20  H   -0.000370  -0.000298   0.000129   0.000003   0.000000  -0.000000
    21  H   -0.002631   0.004044  -0.000062  -0.000754  -0.000024   0.000001
    22  H   -0.000373   0.001314  -0.000174   0.000801   0.000003  -0.000002
    23  H    0.008353   0.000045  -0.000023   0.000021  -0.000001   0.000000
    24  H   -0.007957  -0.000084   0.000031  -0.000013   0.000001  -0.000000
    25  H    0.449011  -0.000156  -0.000011  -0.000030   0.000000  -0.000000
    26  H   -0.000156   0.429380  -0.010902   0.000992  -0.000037   0.000002
    27  H   -0.000011  -0.010902   0.428918   0.000152   0.000016  -0.000000
    28  H   -0.000030   0.000992   0.000152   0.510092  -0.005976  -0.000071
    29  H    0.000000  -0.000037   0.000016  -0.005976   0.519714  -0.006780
    30  H   -0.000000   0.000002  -0.000000  -0.000071  -0.006780   0.515434
    31  H   -0.000000   0.000012   0.000001   0.000008  -0.000137  -0.006763
    32  H   -0.000000   0.000209  -0.000547   0.000089   0.000007  -0.000087
              31         32
     1  C   -0.000001  -0.000466
     2  N   -0.000001  -0.002152
     3  C   -0.000047   0.003683
     4  C   -0.000003   0.000191
     5  C   -0.000000   0.000012
     6  O    0.000000  -0.000001
     7  C   -0.000943  -0.008353
     8  C    0.017111  -0.068793
     9  C   -0.002550   0.018466
    10  C    0.014891  -0.005702
    11  C   -0.062792   0.015804
    12  C    0.435036  -0.058790
    13  C   -0.058364   0.446994
    14  Cl  -0.000000   0.000000
    15  H    0.000000  -0.000091
    16  H   -0.000000   0.000023
    17  H    0.000000  -0.000003
    18  H   -0.000009  -0.000423
    19  H    0.000061  -0.001583
    20  H    0.000001   0.000112
    21  H   -0.000001   0.000020
    22  H    0.000007  -0.000002
    23  H   -0.000000   0.000014
    24  H    0.000000  -0.000003
    25  H   -0.000000  -0.000000
    26  H    0.000012   0.000209
    27  H    0.000001  -0.000547
    28  H    0.000008   0.000089
    29  H   -0.000137   0.000007
    30  H   -0.006763  -0.000087
    31  H    0.519244  -0.005601
    32  H   -0.005601   0.506459
 Mulliken charges:
               1
     1  C   -0.273138
     2  N   -0.151593
     3  C   -0.361096
     4  C   -0.268891
     5  C   -0.176065
     6  O   -0.398070
     7  C   -0.269145
     8  C   -0.054324
     9  C   -0.117438
    10  C   -0.126946
    11  C   -0.132484
    12  C   -0.126892
    13  C   -0.129425
    14  Cl  -0.828877
    15  H    0.182400
    16  H    0.165816
    17  H    0.195321
    18  H    0.204843
    19  H    0.217669
    20  H    0.210170
    21  H    0.206567
    22  H    0.221125
    23  H    0.171714
    24  H    0.159487
    25  H    0.235400
    26  H    0.232555
    27  H    0.233392
    28  H    0.161195
    29  H    0.150858
    30  H    0.154516
    31  H    0.150840
    32  H    0.160517
 Sum of Mulliken charges =  -0.00000
 Mulliken charges with hydrogens summed into heavy atoms:
               1
     1  C    0.270398
     2  N   -0.151593
     3  C    0.271586
     4  C    0.158800
     5  C    0.155136
     6  O   -0.162670
     7  C    0.196803
     8  C   -0.054324
     9  C    0.043757
    10  C    0.023912
    11  C    0.022032
    12  C    0.023948
    13  C    0.031091
    14  Cl  -0.828877
 Electronic spatial extent (au):  <R**2>=           4308.9826
 Charge=              0.0000 electrons
 Dipole moment (field-independent basis, Debye):
    X=            -16.7980    Y=             -8.9446    Z=              0.2282  Tot=             19.0323
 Quadrupole moment (field-independent basis, Debye-Ang):
   XX=           -148.1624   YY=            -91.6474   ZZ=            -91.6054
   XY=            -20.3795   XZ=              0.5324   YZ=              9.8819
 Traceless Quadrupole moment (field-independent basis, Debye-Ang):
   XX=            -37.6907   YY=             18.8243   ZZ=             18.8664
   XY=            -20.3795   XZ=              0.5324   YZ=              9.8819
 Octapole moment (field-independent basis, Debye-Ang**2):
  XXX=           -298.1322  YYY=            -47.9964  ZZZ=             -0.4640  XYY=            -56.7472
  XXY=            -88.4670  XXZ=             31.9868  XZZ=             -1.6141  YZZ=            -13.4882
  YYZ=              5.7149  XYZ=             13.4334
 Hexadecapole moment (field-independent basis, Debye-Ang**3):
 XXXX=          -5011.8339 YYYY=           -966.8950 ZZZZ=           -560.9121 XXXY=           -328.4126
 XXXZ=            -34.1471 YYYX=           -116.1939 YYYZ=             34.3924 ZZZX=             15.5320
 ZZZY=             17.9317 XXYY=          -1018.5404 XXZZ=           -888.3928 YYZZ=           -253.8909
 XXYZ=            126.4755 YYXZ=              9.9394 ZZXY=             -9.9732
 N-N= 1.013053004666D+03 E-N=-4.420559631794D+03  KE= 1.016281626305D+03
 Unable to Open any file for archive entry.
 1\1\GINC-TCN1211\SP\RBP86\TZVP\C11H18Cl1N1O1\ELENAA\21-Aug-2021\0\\# B
 P86/TZVP SCRF=COSMORS geom=CHECKPOINT guess=CHECKPOINT\\COSMO-file for
  #NUPDFKWZQURWCC-UHFFFAOYSA-M\\0,1\C,0,-1.3946611186,-1.9020639211,1.2
 867760637\N,0,-1.1704797935,-0.6553929542,0.4587240166\C,0,-1.81443377
 26,0.5188195735,1.1422163164\C,0,0.3206598136,-0.4058126088,0.23788268
 58\C,0,1.1635914792,-0.0940805892,1.4754906014\O,0,1.2485376259,-1.140
 0064297,2.4370882885\C,0,-1.8390189912,-0.9121392731,-0.9186944184\C,0
 ,-1.7494041569,0.2250930699,-1.8990580526\C,0,-0.6997624505,0.27848185
 35,-2.8334005726\C,0,-0.6186756997,1.3311100105,-3.7498472361\C,0,-1.5
 912755742,2.3385269611,-3.7473169529\C,0,-2.6516964013,2.2833122532,-2
 .8343884268\C,0,-2.733201083,1.2293328923,-1.9194478356\Cl,0,1.8580660
 39,-3.6039649343,0.69374752\H,0,-2.4699300732,-2.1140648261,1.30332944
 11\H,0,-0.8292713925,-2.7256532686,0.8326910615\H,0,-1.01048339,-1.721
 0295288,2.2937924464\H,0,-2.8952385773,0.3465303401,1.19201567\H,0,-1.
 6005210643,1.4286920067,0.5719013838\H,0,-1.4098990598,0.6016142578,2.
 15549178\H,0,0.7060252531,-1.3124711287,-0.2504239615\H,0,0.3887499825
 ,0.4422585535,-0.4560602047\H,0,0.795780206,0.8022527679,1.9968271459\
 H,0,2.1604234226,0.1672033768,1.0659297222\H,0,1.5154614972,-1.9723371
 768,1.9426342518\H,0,-1.3488421337,-1.8145847075,-1.3063800697\H,0,-2.
 8840422797,-1.15518092,-0.685732805\H,0,0.0548182723,-0.511486775,-2.8
 456556099\H,0,0.2013229478,1.3615929141,-4.4697757024\H,0,-1.529159161
 5,3.1600877036,-4.4637436349\H,0,-3.421068918,3.0577018641,-2.83965938
 72\H,0,-3.5717714476,1.1823046433,-1.2210055249\\Version=ES64L-G16RevC
 .01\State=1-A\HF=-1020.4437442\RMSD=4.119e-09\Dipole=-5.197344,5.11129
 97,-1.7119673\Quadrupole=2.2004291,-10.3943125,8.1938834,21.5463951,-1
 5.7193118,8.4427505\PG=C01 [X(C11H18Cl1N1O1)]\\@
 The archive entry for this job was punched.


 BOOKS ARE LIGHTHOUSES ERECTED IN THE GREAT SEA OF TIME.
     -- E.P.WHIPPLE
 Job cpu time:       0 days  0 hours 14 minutes 10.6 seconds.
 Elapsed time:       0 days  0 hours  0 minutes 36.2 seconds.
 File lengths (MBytes):  RWF=    110 Int=      0 D2E=      0 Chk=     16 Scr=      1
 Normal termination of Gaussian 16 at Sat Aug 21 10:20:20 2021.
