 Entering Gaussian System, Link 0=g16
 Input=NZNMSOFKMUBTKW-UHFFFAOYSA-N.gjf
 Output=NZNMSOFKMUBTKW-UHFFFAOYSA-N.log
 Initial command:
 /sw/arch/RedHatEnterpriseServer7/EB_production/2019/software/Gaussian/g16.c01/l1.exe "/scratch-local/elenaa.9715249/Gau-26992.inp" -scrdir="/scratch-local/elenaa.9715249/"
 Entering Link 1 = /sw/arch/RedHatEnterpriseServer7/EB_production/2019/software/Gaussian/g16.c01/l1.exe PID=     26993.
  
 Copyright (c) 1988-2019, Gaussian, Inc.  All Rights Reserved.
  
 This is part of the Gaussian(R) 16 program.  It is based on
 the Gaussian(R) 09 system (copyright 2009, Gaussian, Inc.),
 the Gaussian(R) 03 system (copyright 2003, Gaussian, Inc.),
 the Gaussian(R) 98 system (copyright 1998, Gaussian, Inc.),
 the Gaussian(R) 94 system (copyright 1995, Gaussian, Inc.),
 the Gaussian 92(TM) system (copyright 1992, Gaussian, Inc.),
 the Gaussian 90(TM) system (copyright 1990, Gaussian, Inc.),
 the Gaussian 88(TM) system (copyright 1988, Gaussian, Inc.),
 the Gaussian 86(TM) system (copyright 1986, Carnegie Mellon
 University), and the Gaussian 82(TM) system (copyright 1983,
 Carnegie Mellon University). Gaussian is a federally registered
 trademark of Gaussian, Inc.
  
 This software contains proprietary and confidential information,
 including trade secrets, belonging to Gaussian, Inc.
  
 This software is provided under written license and may be
 used, copied, transmitted, or stored only in accord with that
 written license.
  
 The following legend is applicable only to US Government
 contracts under FAR:
  
                    RESTRICTED RIGHTS LEGEND
  
 Use, reproduction and disclosure by the US Government is
 subject to restrictions as set forth in subparagraphs (a)
 and (c) of the Commercial Computer Software - Restricted
 Rights clause in FAR 52.227-19.
  
 Gaussian, Inc.
 340 Quinnipiac St., Bldg. 40, Wallingford CT 06492
  
  
 ---------------------------------------------------------------
 Warning -- This program may not be used in any manner that
 competes with the business of Gaussian, Inc. or will provide
 assistance to any competitor of Gaussian, Inc.  The licensee
 of this program is prohibited from giving any competitor of
 Gaussian, Inc. access to this program.  By using this program,
 the user acknowledges that Gaussian, Inc. is engaged in the
 business of creating and licensing software in the field of
 computational chemistry and represents and warrants to the
 licensee that it is not a competitor of Gaussian, Inc. and that
 it will not use this program in any manner prohibited above.
 ---------------------------------------------------------------
  

 Cite this work as:
 Gaussian 16, Revision C.01,
 M. J. Frisch, G. W. Trucks, H. B. Schlegel, G. E. Scuseria, 
 M. A. Robb, J. R. Cheeseman, G. Scalmani, V. Barone, 
 G. A. Petersson, H. Nakatsuji, X. Li, M. Caricato, A. V. Marenich, 
 J. Bloino, B. G. Janesko, R. Gomperts, B. Mennucci, H. P. Hratchian, 
 J. V. Ortiz, A. F. Izmaylov, J. L. Sonnenberg, D. Williams-Young, 
 F. Ding, F. Lipparini, F. Egidi, J. Goings, B. Peng, A. Petrone, 
 T. Henderson, D. Ranasinghe, V. G. Zakrzewski, J. Gao, N. Rega, 
 G. Zheng, W. Liang, M. Hada, M. Ehara, K. Toyota, R. Fukuda, 
 J. Hasegawa, M. Ishida, T. Nakajima, Y. Honda, O. Kitao, H. Nakai, 
 T. Vreven, K. Throssell, J. A. Montgomery, Jr., J. E. Peralta, 
 F. Ogliaro, M. J. Bearpark, J. J. Heyd, E. N. Brothers, K. N. Kudin, 
 V. N. Staroverov, T. A. Keith, R. Kobayashi, J. Normand, 
 K. Raghavachari, A. P. Rendell, J. C. Burant, S. S. Iyengar, 
 J. Tomasi, M. Cossi, J. M. Millam, M. Klene, C. Adamo, R. Cammi, 
 J. W. Ochterski, R. L. Martin, K. Morokuma, O. Farkas, 
 J. B. Foresman, and D. J. Fox, Gaussian, Inc., Wallingford CT, 2019.
 
 ******************************************
 Gaussian 16:  ES64L-G16RevC.01  3-Jul-2019
                22-Feb-2021 
 ******************************************
 %chk=NZNMSOFKMUBTKW-UHFFFAOYSA-N.chk
 %NProcShared=32
 Will use up to   32 processors via shared memory.
 -------------------------------------------------------------
 #P BP86/TZVP EmpiricalDispersion=GD3 SCRF=(Solvent=Water) Opt
 -------------------------------------------------------------
 1/18=20,19=15,26=3,38=1/1,3;
 2/9=110,12=2,17=6,18=5,40=1/2;
 3/5=19,7=101,11=2,25=1,30=1,70=2201,71=1,72=1,74=404,124=31/1,2,3;
 4//1;
 5/5=2,38=5,53=1/2;
 6/7=2,8=2,9=2,10=2,28=1/1;
 7//1,2,3,16;
 1/18=20,19=15,26=3/3(2);
 2/9=110/2;
 99//99;
 2/9=110/2;
 3/5=19,7=101,11=2,25=1,30=1,70=2205,71=1,72=1,74=404,124=31/1,2,3;
 4/5=5,16=3,69=1/1;
 5/5=2,38=5,53=1/2;
 7//1,2,3,16;
 1/18=20,19=15,26=3/3(-5);
 2/9=110/2;
 6/7=2,8=2,9=2,10=2,19=2,28=1/1;
 99/9=1/99;
 Leave Link    1 at Mon Feb 22 21:15:34 2021, MaxMem=           0 cpu:               1.4 elap:               0.1
 (Enter /sw/arch/RedHatEnterpriseServer7/EB_production/2019/software/Gaussian/g16.c01/l101.exe)
 -------------------------------------
 Particle #NZNMSOFKMUBTKW-UHFFFAOYSA-N
 -------------------------------------
 Symbolic Z-matrix:
 Charge =  0 Multiplicity = 1
 O                     1.19189   0.33577  -0.76371 
 C                     0.16874  -0.36803  -0.59808 
 O                     0.11645  -1.58085  -1.20087 
 C                    -0.94665   0.09524   0.26368 
 C                    -1.10012   1.64844   0.26791 
 C                    -2.25663   2.10897   1.1974 
 C                    -2.10291   1.55035   2.63763 
 C                    -1.93418   0.00856   2.64172 
 C                    -0.77347  -0.43944   1.71675 
 H                     0.87427  -1.90309  -1.73381 
 H                    -1.87336  -0.32858  -0.1407 
 H                    -1.30185   2.00397  -0.74717 
 H                    -0.16924   2.11647   0.60629 
 H                    -2.27669   3.20099   1.23454 
 H                    -3.21013   1.77298   0.78036 
 H                    -2.98263   1.81918   3.22626 
 H                    -1.23142   2.00859   3.11253 
 H                    -1.73645  -0.33185   3.66148 
 H                    -2.86449  -0.46029   2.30991 
 H                     0.16957  -0.07576   2.13749 
 H                    -0.73306  -1.53204   1.70611 
 
 ITRead=  0  0  0  0  0  0  0  0  0  0  0  0  0  0  0  0  0  0  0  0
 ITRead=  0
 MicOpt= -1 -1 -1 -1 -1 -1 -1 -1 -1 -1 -1 -1 -1 -1 -1 -1 -1 -1 -1 -1
 MicOpt= -1
 NAtoms=     21 NQM=       21 NQMF=       0 NMMI=      0 NMMIF=      0
                NMic=       0 NMicF=      0.
                    Isotopes and Nuclear Properties:
 (Nuclear quadrupole moments (NQMom) in fm**2, nuclear magnetic moments (NMagM)
  in nuclear magnetons)

  Atom         1           2           3           4           5           6           7           8           9          10
 IAtWgt=          16          12          16          12          12          12          12          12          12           1
 AtmWgt=  15.9949146  12.0000000  15.9949146  12.0000000  12.0000000  12.0000000  12.0000000  12.0000000  12.0000000   1.0078250
 NucSpn=           0           0           0           0           0           0           0           0           0           1
 AtZEff=  -0.0000000  -0.0000000  -0.0000000  -0.0000000  -0.0000000  -0.0000000  -0.0000000  -0.0000000  -0.0000000  -0.0000000
 NQMom=    0.0000000   0.0000000   0.0000000   0.0000000   0.0000000   0.0000000   0.0000000   0.0000000   0.0000000   0.0000000
 NMagM=    0.0000000   0.0000000   0.0000000   0.0000000   0.0000000   0.0000000   0.0000000   0.0000000   0.0000000   2.7928460
 AtZNuc=   8.0000000   6.0000000   8.0000000   6.0000000   6.0000000   6.0000000   6.0000000   6.0000000   6.0000000   1.0000000

  Atom        11          12          13          14          15          16          17          18          19          20
 IAtWgt=           1           1           1           1           1           1           1           1           1           1
 AtmWgt=   1.0078250   1.0078250   1.0078250   1.0078250   1.0078250   1.0078250   1.0078250   1.0078250   1.0078250   1.0078250
 NucSpn=           1           1           1           1           1           1           1           1           1           1
 AtZEff=  -0.0000000  -0.0000000  -0.0000000  -0.0000000  -0.0000000  -0.0000000  -0.0000000  -0.0000000  -0.0000000  -0.0000000
 NQMom=    0.0000000   0.0000000   0.0000000   0.0000000   0.0000000   0.0000000   0.0000000   0.0000000   0.0000000   0.0000000
 NMagM=    2.7928460   2.7928460   2.7928460   2.7928460   2.7928460   2.7928460   2.7928460   2.7928460   2.7928460   2.7928460
 AtZNuc=   1.0000000   1.0000000   1.0000000   1.0000000   1.0000000   1.0000000   1.0000000   1.0000000   1.0000000   1.0000000

  Atom        21
 IAtWgt=           1
 AtmWgt=   1.0078250
 NucSpn=           1
 AtZEff=  -0.0000000
 NQMom=    0.0000000
 NMagM=    2.7928460
 AtZNuc=   1.0000000
 Leave Link  101 at Mon Feb 22 21:15:34 2021, MaxMem=   104857600 cpu:               2.5 elap:               0.1
 (Enter /sw/arch/RedHatEnterpriseServer7/EB_production/2019/software/Gaussian/g16.c01/l103.exe)

 GradGradGradGradGradGradGradGradGradGradGradGradGradGradGradGradGradGrad
 Berny optimization.
 Initialization pass.
                           ----------------------------
                           !    Initial Parameters    !
                           ! (Angstroms and Degrees)  !
 --------------------------                            --------------------------
 ! Name  Definition              Value          Derivative Info.                !
 --------------------------------------------------------------------------------
 ! R1    R(1,2)                  1.2528         estimate D2E/DX2                !
 ! R2    R(2,3)                  1.3554         estimate D2E/DX2                !
 ! R3    R(2,4)                  1.4837         estimate D2E/DX2                !
 ! R4    R(3,10)                 0.9809         estimate D2E/DX2                !
 ! R5    R(4,5)                  1.5608         estimate D2E/DX2                !
 ! R6    R(4,9)                  1.558          estimate D2E/DX2                !
 ! R7    R(4,11)                 1.0963         estimate D2E/DX2                !
 ! R8    R(5,6)                  1.5536         estimate D2E/DX2                !
 ! R9    R(5,12)                 1.0943         estimate D2E/DX2                !
 ! R10   R(5,13)                 1.0955         estimate D2E/DX2                !
 ! R11   R(6,7)                  1.5524         estimate D2E/DX2                !
 ! R12   R(6,14)                 1.0928         estimate D2E/DX2                !
 ! R13   R(6,15)                 1.0936         estimate D2E/DX2                !
 ! R14   R(7,8)                  1.551          estimate D2E/DX2                !
 ! R15   R(7,16)                 1.0921         estimate D2E/DX2                !
 ! R16   R(7,17)                 1.0932         estimate D2E/DX2                !
 ! R17   R(8,9)                  1.5503         estimate D2E/DX2                !
 ! R18   R(8,18)                 1.0931         estimate D2E/DX2                !
 ! R19   R(8,19)                 1.0933         estimate D2E/DX2                !
 ! R20   R(9,20)                 1.0948         estimate D2E/DX2                !
 ! R21   R(9,21)                 1.0934         estimate D2E/DX2                !
 ! A1    A(1,2,3)              118.385          estimate D2E/DX2                !
 ! A2    A(1,2,4)              121.019          estimate D2E/DX2                !
 ! A3    A(3,2,4)              120.5781         estimate D2E/DX2                !
 ! A4    A(2,3,10)             120.3837         estimate D2E/DX2                !
 ! A5    A(2,4,5)              112.7196         estimate D2E/DX2                !
 ! A6    A(2,4,9)              110.5479         estimate D2E/DX2                !
 ! A7    A(2,4,11)             107.4885         estimate D2E/DX2                !
 ! A8    A(5,4,9)              110.4828         estimate D2E/DX2                !
 ! A9    A(5,4,11)             107.6132         estimate D2E/DX2                !
 ! A10   A(9,4,11)             107.7763         estimate D2E/DX2                !
 ! A11   A(4,5,6)              111.7044         estimate D2E/DX2                !
 ! A12   A(4,5,12)             109.8118         estimate D2E/DX2                !
 ! A13   A(4,5,13)             110.0259         estimate D2E/DX2                !
 ! A14   A(6,5,12)             108.7502         estimate D2E/DX2                !
 ! A15   A(6,5,13)             108.7304         estimate D2E/DX2                !
 ! A16   A(12,5,13)            107.7201         estimate D2E/DX2                !
 ! A17   A(5,6,7)              112.0047         estimate D2E/DX2                !
 ! A18   A(5,6,14)             109.2816         estimate D2E/DX2                !
 ! A19   A(5,6,15)             109.258          estimate D2E/DX2                !
 ! A20   A(7,6,14)             109.2604         estimate D2E/DX2                !
 ! A21   A(7,6,15)             109.2426         estimate D2E/DX2                !
 ! A22   A(14,6,15)            107.6955         estimate D2E/DX2                !
 ! A23   A(6,7,8)              111.7726         estimate D2E/DX2                !
 ! A24   A(6,7,16)             109.3722         estimate D2E/DX2                !
 ! A25   A(6,7,17)             109.3378         estimate D2E/DX2                !
 ! A26   A(8,7,16)             109.324          estimate D2E/DX2                !
 ! A27   A(8,7,17)             109.1974         estimate D2E/DX2                !
 ! A28   A(16,7,17)            107.749          estimate D2E/DX2                !
 ! A29   A(7,8,9)              111.5387         estimate D2E/DX2                !
 ! A30   A(7,8,18)             109.3722         estimate D2E/DX2                !
 ! A31   A(7,8,19)             109.4455         estimate D2E/DX2                !
 ! A32   A(9,8,18)             109.3402         estimate D2E/DX2                !
 ! A33   A(9,8,19)             109.3941         estimate D2E/DX2                !
 ! A34   A(18,8,19)            107.6675         estimate D2E/DX2                !
 ! A35   A(4,9,8)              111.9663         estimate D2E/DX2                !
 ! A36   A(4,9,20)             109.8874         estimate D2E/DX2                !
 ! A37   A(4,9,21)             109.7533         estimate D2E/DX2                !
 ! A38   A(8,9,20)             108.6399         estimate D2E/DX2                !
 ! A39   A(8,9,21)             108.7982         estimate D2E/DX2                !
 ! A40   A(20,9,21)            107.6888         estimate D2E/DX2                !
 ! D1    D(1,2,3,10)             1.5206         estimate D2E/DX2                !
 ! D2    D(4,2,3,10)          -176.9582         estimate D2E/DX2                !
 ! D3    D(1,2,4,5)             31.0257         estimate D2E/DX2                !
 ! D4    D(1,2,4,9)            -93.1746         estimate D2E/DX2                !
 ! D5    D(1,2,4,11)           149.4416         estimate D2E/DX2                !
 ! D6    D(3,2,4,5)           -150.536          estimate D2E/DX2                !
 ! D7    D(3,2,4,9)             85.2637         estimate D2E/DX2                !
 ! D8    D(3,2,4,11)           -32.1201         estimate D2E/DX2                !
 ! D9    D(2,4,5,6)           -178.9367         estimate D2E/DX2                !
 ! D10   D(2,4,5,12)            60.3241         estimate D2E/DX2                !
 ! D11   D(2,4,5,13)           -58.077          estimate D2E/DX2                !
 ! D12   D(9,4,5,6)            -54.7006         estimate D2E/DX2                !
 ! D13   D(9,4,5,12)          -175.4399         estimate D2E/DX2                !
 ! D14   D(9,4,5,13)            66.1591         estimate D2E/DX2                !
 ! D15   D(11,4,5,6)            62.7204         estimate D2E/DX2                !
 ! D16   D(11,4,5,12)          -58.0188         estimate D2E/DX2                !
 ! D17   D(11,4,5,13)         -176.4199         estimate D2E/DX2                !
 ! D18   D(2,4,9,8)           -179.1569         estimate D2E/DX2                !
 ! D19   D(2,4,9,20)            60.0191         estimate D2E/DX2                !
 ! D20   D(2,4,9,21)           -58.2246         estimate D2E/DX2                !
 ! D21   D(5,4,9,8)             55.3701         estimate D2E/DX2                !
 ! D22   D(5,4,9,20)           -65.4539         estimate D2E/DX2                !
 ! D23   D(5,4,9,21)           176.3024         estimate D2E/DX2                !
 ! D24   D(11,4,9,8)           -61.9504         estimate D2E/DX2                !
 ! D25   D(11,4,9,20)          177.2256         estimate D2E/DX2                !
 ! D26   D(11,4,9,21)           58.9819         estimate D2E/DX2                !
 ! D27   D(4,5,6,7)             54.201          estimate D2E/DX2                !
 ! D28   D(4,5,6,14)           175.4191         estimate D2E/DX2                !
 ! D29   D(4,5,6,15)           -66.9786         estimate D2E/DX2                !
 ! D30   D(12,5,6,7)           175.557          estimate D2E/DX2                !
 ! D31   D(12,5,6,14)          -63.2248         estimate D2E/DX2                !
 ! D32   D(12,5,6,15)           54.3775         estimate D2E/DX2                !
 ! D33   D(13,5,6,7)           -67.4101         estimate D2E/DX2                !
 ! D34   D(13,5,6,14)           53.808          estimate D2E/DX2                !
 ! D35   D(13,5,6,15)          171.4103         estimate D2E/DX2                !
 ! D36   D(5,6,7,8)            -53.4247         estimate D2E/DX2                !
 ! D37   D(5,6,7,16)          -174.6332         estimate D2E/DX2                !
 ! D38   D(5,6,7,17)            67.6011         estimate D2E/DX2                !
 ! D39   D(14,6,7,8)          -174.655          estimate D2E/DX2                !
 ! D40   D(14,6,7,16)           64.1365         estimate D2E/DX2                !
 ! D41   D(14,6,7,17)          -53.6292         estimate D2E/DX2                !
 ! D42   D(15,6,7,8)            67.7638         estimate D2E/DX2                !
 ! D43   D(15,6,7,16)          -53.4447         estimate D2E/DX2                !
 ! D44   D(15,6,7,17)         -171.2104         estimate D2E/DX2                !
 ! D45   D(6,7,8,9)             53.6847         estimate D2E/DX2                !
 ! D46   D(6,7,8,18)           174.7612         estimate D2E/DX2                !
 ! D47   D(6,7,8,19)           -67.509          estimate D2E/DX2                !
 ! D48   D(16,7,8,9)           174.9211         estimate D2E/DX2                !
 ! D49   D(16,7,8,18)          -64.0023         estimate D2E/DX2                !
 ! D50   D(16,7,8,19)           53.7274         estimate D2E/DX2                !
 ! D51   D(17,7,8,9)           -67.4226         estimate D2E/DX2                !
 ! D52   D(17,7,8,18)           53.654          estimate D2E/DX2                !
 ! D53   D(17,7,8,19)          171.3838         estimate D2E/DX2                !
 ! D54   D(7,8,9,4)            -55.1426         estimate D2E/DX2                !
 ! D55   D(7,8,9,20)            66.4018         estimate D2E/DX2                !
 ! D56   D(7,8,9,21)          -176.6262         estimate D2E/DX2                !
 ! D57   D(18,8,9,4)          -176.2378         estimate D2E/DX2                !
 ! D58   D(18,8,9,20)          -54.6935         estimate D2E/DX2                !
 ! D59   D(18,8,9,21)           62.2786         estimate D2E/DX2                !
 ! D60   D(19,8,9,4)            66.081          estimate D2E/DX2                !
 ! D61   D(19,8,9,20)         -172.3746         estimate D2E/DX2                !
 ! D62   D(19,8,9,21)          -55.4026         estimate D2E/DX2                !
 --------------------------------------------------------------------------------
 Trust Radius=3.00D-01 FncErr=1.00D-07 GrdErr=1.00D-06 EigMax=2.50D+02 EigMin=1.00D-04
 Number of steps in this run=    126 maximum allowed number of steps=    126.
 GradGradGradGradGradGradGradGradGradGradGradGradGradGradGradGradGradGrad

 Leave Link  103 at Mon Feb 22 21:15:34 2021, MaxMem=   104857600 cpu:               0.4 elap:               0.0
 (Enter /sw/arch/RedHatEnterpriseServer7/EB_production/2019/software/Gaussian/g16.c01/l202.exe)
                          Input orientation:                          
 ---------------------------------------------------------------------
 Center     Atomic      Atomic             Coordinates (Angstroms)
 Number     Number       Type             X           Y           Z
 ---------------------------------------------------------------------
      1          8           0        1.191894    0.335770   -0.763708
      2          6           0        0.168740   -0.368030   -0.598080
      3          8           0        0.116447   -1.580851   -1.200868
      4          6           0       -0.946650    0.095240    0.263680
      5          6           0       -1.100120    1.648440    0.267910
      6          6           0       -2.256630    2.108970    1.197400
      7          6           0       -2.102910    1.550350    2.637630
      8          6           0       -1.934180    0.008560    2.641720
      9          6           0       -0.773470   -0.439440    1.716750
     10          1           0        0.874274   -1.903085   -1.733810
     11          1           0       -1.873360   -0.328580   -0.140700
     12          1           0       -1.301850    2.003970   -0.747170
     13          1           0       -0.169240    2.116470    0.606290
     14          1           0       -2.276690    3.200990    1.234540
     15          1           0       -3.210130    1.772980    0.780360
     16          1           0       -2.982630    1.819180    3.226260
     17          1           0       -1.231420    2.008590    3.112530
     18          1           0       -1.736450   -0.331850    3.661480
     19          1           0       -2.864490   -0.460290    2.309910
     20          1           0        0.169570   -0.075760    2.137490
     21          1           0       -0.733060   -1.532040    1.706110
 ---------------------------------------------------------------------
                    Distance matrix (angstroms):
                    1          2          3          4          5
     1  O    0.000000
     2  C    1.252841   0.000000
     3  O    2.240788   1.355368   0.000000
     4  C    2.384691   1.483693   2.466649   0.000000
     5  C    2.835607   2.534974   3.750422   1.560769   0.000000
     6  C    4.345400   3.904062   4.999796   2.577400   1.553562
     7  C    4.888766   4.394359   5.428078   3.014950   2.575031
     8  C    4.634258   3.880773   4.636462   2.576393   3.003304
     9  C    3.258263   2.500259   3.256880   1.557975   2.562241
    10  H    2.460580   2.035695   0.980899   3.361404   4.529729
    11  H    3.197699   2.093066   2.579045   1.096329   2.161821
    12  H    3.000320   2.794861   3.881797   2.188889   1.094296
    13  H    2.626875   2.781632   4.125242   2.192514   1.095487
    14  H    4.922759   4.698567   5.875740   3.515289   2.174650
    15  H    4.881345   4.230932   5.122457   2.864457   2.174915
    16  H    5.962130   5.416696   6.384665   3.986736   3.510674
    17  H    4.867853   4.623570   5.771155   3.443537   2.870333
    18  H    5.348196   4.666359   5.351230   3.514432   3.980299
    19  H    5.151222   4.203023   4.739958   2.858983   3.424837
    20  H    3.103458   2.751139   3.662343   2.187773   2.842588
    21  H    3.646116   2.734493   3.028955   2.185009   3.509787
                    6          7          8          9         10
     6  C    0.000000
     7  C    1.552401   0.000000
     8  C    2.569388   1.551001   0.000000
     9  C    2.993974   2.564117   1.550329   0.000000
    10  H    5.872916   6.316591   5.539591   4.094348   0.000000
    11  H    2.806966   3.361873   2.803431   2.161520   3.544934
    12  H    2.168867   3.507754   3.983225   3.510034   4.579744
    13  H    2.169485   2.861104   3.420712   2.851472   4.766740
    14  H    1.092836   2.173355   3.505578   3.967988   6.692627
    15  H    1.093606   2.173695   2.864592   3.421833   6.042918
    16  H    2.174242   1.092091   2.172390   3.501481   7.302962
    17  H    2.174593   1.093165   2.171556   2.854955   6.574356
    18  H    3.507118   2.173761   1.093109   2.172759   6.196274
    19  H    2.865008   2.174874   1.093341   2.173623   5.693126
    20  H    3.397537   2.838757   2.164976   1.094810   4.338512
    21  H    3.979573   3.499335   2.165988   1.093399   3.815003
                   11         12         13         14         15
    11  H    0.000000
    12  H    2.476937   0.000000
    13  H    3.072505   1.768422   0.000000
    14  H    3.809439   2.512040   2.451984   0.000000
    15  H    2.655534   2.455247   3.065175   1.765447   0.000000
    16  H    4.144849   4.318254   3.855877   2.524817   2.456892
    17  H    4.056841   3.860345   2.724170   2.457896   3.067543
    18  H    3.804646   5.008106   4.217180   4.320053   3.860427
    19  H    2.646729   4.226128   4.099559   3.860946   2.728825
    20  H    3.070445   3.848586   2.695411   4.187672   4.084362
    21  H    2.481795   4.341137   3.852158   5.000674   4.232735
                   16         17         18         19         20
    16  H    0.000000
    17  H    1.765091   0.000000
    18  H    2.523749   2.456433   0.000000
    19  H    2.459601   3.066999   1.765138   0.000000
    20  H    3.835698   2.694066   2.453781   3.063187   0.000000
    21  H    4.313015   3.842192   2.504140   2.460938   1.766800
                   21
    21  H    0.000000
 Stoichiometry    C7H12O2
 Framework group  C1[X(C7H12O2)]
 Deg. of freedom    57
 Full point group                 C1      NOp   1
 Largest Abelian subgroup         C1      NOp   1
 Largest concise Abelian subgroup C1      NOp   1
                         Standard orientation:                         
 ---------------------------------------------------------------------
 Center     Atomic      Atomic             Coordinates (Angstroms)
 Number     Number       Type             X           Y           Z
 ---------------------------------------------------------------------
      1          8           0       -2.195119   -0.833670    0.932020
      2          6           0       -1.816280   -0.087642   -0.000468
      3          8           0       -2.746973    0.648703   -0.655166
      4          6           0       -0.380815    0.017047   -0.360779
      5          6           0        0.405082   -1.305214   -0.096215
      6          6           0        1.909452   -1.161311   -0.456376
      7          6           0        2.567960    0.044204    0.266847
      8          6           0        1.784284    1.360059    0.021938
      9          6           0        0.286274    1.207472    0.390998
     10          1           0       -3.689271    0.610804   -0.385349
     11          1           0       -0.325318    0.226580   -1.435467
     12          1           0       -0.023238   -2.116843   -0.692272
     13          1           0        0.321394   -1.586593    0.959205
     14          1           0        2.435856   -2.078469   -0.180679
     15          1           0        2.010732   -1.032112   -1.537590
     16          1           0        3.593896    0.163195   -0.088057
     17          1           0        2.607938   -0.155792    1.340817
     18          1           0        2.224882    2.161323    0.620883
     19          1           0        1.871824    1.645462   -1.029859
     20          1           0        0.205888    1.056983    1.472433
     21          1           0       -0.233594    2.137503    0.145439
 ---------------------------------------------------------------------
 Rotational constants (GHZ):           3.1676353           1.0235113           0.8786515
 Leave Link  202 at Mon Feb 22 21:15:34 2021, MaxMem=   104857600 cpu:               0.5 elap:               0.0
 (Enter /sw/arch/RedHatEnterpriseServer7/EB_production/2019/software/Gaussian/g16.c01/l301.exe)
 Standard basis: TZVP (5D, 7F)
 Ernie: Thresh=  0.10000D-02 Tol=  0.10000D-05 Strict=F.
 There are   252 symmetry adapted cartesian basis functions of A   symmetry.
 There are   243 symmetry adapted basis functions of A   symmetry.
   243 basis functions,   411 primitive gaussians,   252 cartesian basis functions
    35 alpha electrons       35 beta electrons
       nuclear repulsion energy       468.8900757279 Hartrees.
 IExCor=  404 DFT=T Ex=B Corr=P86 ExCW=0 ScaHFX=  0.000000
 ScaDFX=  1.000000  1.000000  1.000000  1.000000 ScalE2=  1.000000  1.000000
 IRadAn=      5 IRanWt=     -1 IRanGd=            0 ICorTp=0 IEmpDi=131
 NAtoms=   21 NActive=   21 NUniq=   21 SFac= 1.00D+00 NAtFMM=   60 NAOKFM=F Big=F
 Integral buffers will be    131072 words long.
 Raffenetti 2 integral format.
 Two-electron integral symmetry is turned on.
 R6Disp:  Grimme-D3 Dispersion energy=       -0.0210172694 Hartrees.
 Nuclear repulsion after empirical dispersion term =      468.8690584585 Hartrees.
 ------------------------------------------------------------------------------
 Polarizable Continuum Model (PCM)
 =================================
 Model                : PCM.
 Atomic radii         : UFF (Universal Force Field).
 Polarization charges : Total charges.
 Charge compensation  : None.
 Solution method      : On-the-fly selection.
 Cavity type          : Scaled VdW (van der Waals Surface) (Alpha=1.100).
 Cavity algorithm     : GePol (No added spheres)
                        Default sphere list used, NSphG=   21.
                        Lebedev-Laikov grids with approx.  5.0 points / Ang**2.
                        Smoothing algorithm: York/Karplus (Gamma=1.0000).
                        Polarization charges: spherical gaussians, with
                                              point-specific exponents (IZeta= 3).
                        Self-potential: point-specific (ISelfS= 7).
                        Self-field    : sphere-specific E.n sum rule (ISelfD= 2).
 1st derivatives      : Analytical E(r).r(x)/FMM algorithm (CHGder, D1EAlg=3).
                        Cavity 1st derivative terms included.
 Solvent              : Water, Eps=  78.355300 Eps(inf)=   1.777849
 ------------------------------------------------------------------------------
 GePol: Number of generator spheres                  =      21
 GePol: Total number of spheres                      =      21
 GePol: Number of exposed spheres                    =      21 (100.00%)
 GePol: Number of points                             =    1552
 GePol: Average weight of points                     =       0.13
 GePol: Minimum weight of points                     =   0.13D-10
 GePol: Maximum weight of points                     =    0.20577
 GePol: Number of points with low weight             =     111
 GePol: Fraction of low-weight points (<1% of avg)   =       7.15%
 GePol: Cavity surface area                          =    204.377 Ang**2
 GePol: Cavity volume                                =    203.582 Ang**3
 Leave Link  301 at Mon Feb 22 21:15:34 2021, MaxMem=   104857600 cpu:               1.5 elap:               0.1
 (Enter /sw/arch/RedHatEnterpriseServer7/EB_production/2019/software/Gaussian/g16.c01/l302.exe)
 NPDir=0 NMtPBC=     1 NCelOv=     1 NCel=       1 NClECP=     1 NCelD=      1
         NCelK=      1 NCelE2=     1 NClLst=     1 CellRange=     0.0.
 One-electron integrals computed using PRISM.
 One-electron integral symmetry used in STVInt
 PrsmSu:  requested number of processors reduced to:  28 ShMem   1 Linda.
 NBasis=   243 RedAO= T EigKep=  1.28D-04  NBF=   243
 NBsUse=   243 1.00D-06 EigRej= -1.00D+00 NBFU=   243
 Precomputing XC quadrature grid using
 IXCGrd= 4 IRadAn=           5 IRanWt=          -1 IRanGd=           0 AccXCQ= 0.00D+00.
 Generated NRdTot=       0 NPtTot=           0 NUsed=           0 NTot=          32
 NSgBfM=   251   251   251   251   251 MxSgAt=    21 MxSgA2=    21.
 Leave Link  302 at Mon Feb 22 21:15:35 2021, MaxMem=   104857600 cpu:               8.7 elap:               0.3
 (Enter /sw/arch/RedHatEnterpriseServer7/EB_production/2019/software/Gaussian/g16.c01/l303.exe)
 DipDrv:  MaxL=1.
 Leave Link  303 at Mon Feb 22 21:15:35 2021, MaxMem=   104857600 cpu:               3.7 elap:               0.2
 (Enter /sw/arch/RedHatEnterpriseServer7/EB_production/2019/software/Gaussian/g16.c01/l401.exe)
 ExpMin= 9.52D-02 ExpMax= 2.70D+04 ExpMxC= 9.22D+02 IAcc=3 IRadAn=         5 AccDes= 0.00D+00
 Harris functional with IExCor=  404 and IRadAn=       5 diagonalized for initial guess.
 HarFok:  IExCor=  404 AccDes= 0.00D+00 IRadAn=         5 IDoV= 1 UseB2=F ITyADJ=14
 ICtDFT=  3500011 ScaDFX=  1.000000  1.000000  1.000000  1.000000
 FoFCou: FMM=F IPFlag=           0 FMFlag=      100000 FMFlg1=           0
         NFxFlg=           0 DoJE=T BraDBF=F KetDBF=T FulRan=T
         wScrn=  0.000000 ICntrl=       500 IOpCl=  0 I1Cent=   200000004 NGrid=           0
         NMat0=    1 NMatS0=      1 NMatT0=    0 NMatD0=    1 NMtDS0=    0 NMtDT0=    0
 Petite list used in FoFCou.
 Harris En= -424.810515037738    
 JPrj=0 DoOrth=F DoCkMO=F.
 Leave Link  401 at Mon Feb 22 21:15:36 2021, MaxMem=   104857600 cpu:              13.0 elap:               0.5
 (Enter /sw/arch/RedHatEnterpriseServer7/EB_production/2019/software/Gaussian/g16.c01/l502.exe)
 Integral symmetry usage will be decided dynamically.
 Closed shell SCF:
 Using DIIS extrapolation, IDIIS=  1040.
 NGot=   104857600 LenX=   104719344 LenY=   104655399
 Requested convergence on RMS density matrix=1.00D-08 within 128 cycles.
 Requested convergence on MAX density matrix=1.00D-06.
 Requested convergence on             energy=1.00D-06.
 No special actions if energy rises.
 Fock matrices will be formed incrementally for  20 cycles.

 Cycle   1  Pass 1  IDiag  1:
 FoFJK:  IHMeth= 1 ICntrl=     500 DoSepK=F KAlg= 0 I1Cent=           0 FoldK=F
 IRaf= 940000000 NMat=       1 IRICut=       1 DoRegI=T DoRafI=F ISym2E= 0 IDoP0=0 IntGTp=1.
 FoFCou: FMM=F IPFlag=           0 FMFlag=      100000 FMFlg1=           0
         NFxFlg=           0 DoJE=T BraDBF=F KetDBF=F FulRan=T
         wScrn=  0.000000 ICntrl=       500 IOpCl=  0 I1Cent=           0 NGrid=           0
         NMat0=    1 NMatS0=      1 NMatT0=    0 NMatD0=    1 NMtDS0=    0 NMtDT0=    0
 Symmetry not used in FoFCou.
 Inv3:  Mode=1 IEnd=     7226112.
 Iteration    1 A*A^-1 deviation from unit magnitude is 3.44D-15 for   1264.
 Iteration    1 A*A^-1 deviation from orthogonality  is 1.58D-15 for    952    611.
 Iteration    1 A^-1*A deviation from unit magnitude is 3.44D-15 for   1264.
 Iteration    1 A^-1*A deviation from orthogonality  is 1.36D-15 for    828    494.
 E= -424.324221876297    
 DIIS: error= 3.16D-02 at cycle   1 NSaved=   1.
 NSaved= 1 IEnMin= 1 EnMin= -424.324221876297     IErMin= 1 ErrMin= 3.16D-02
 ErrMax= 3.16D-02  0.00D+00 EMaxC= 1.00D-01 BMatC= 3.11D-01 BMatP= 3.11D-01
 IDIUse=3 WtCom= 6.84D-01 WtEn= 3.16D-01
 Coeff-Com:  0.100D+01
 Coeff-En:   0.100D+01
 Coeff:      0.100D+01
 Gap=     0.068 Goal=   None    Shift=    0.000
 GapD=    0.068 DampG=0.500 DampE=0.500 DampFc=0.2500 IDamp=-1.
 Damping current iteration by 2.50D-01
 RMSDP=8.66D-03 MaxDP=4.70D-01              OVMax= 2.67D-01

 Cycle   2  Pass 1  IDiag  1:
 RMSU=  2.17D-03    CP:  9.95D-01
 E= -424.424606064565     Delta-E=       -0.100384188267 Rises=F Damp=T
 DIIS: error= 1.17D-02 at cycle   2 NSaved=   2.
 NSaved= 2 IEnMin= 2 EnMin= -424.424606064565     IErMin= 2 ErrMin= 1.17D-02
 ErrMax= 1.17D-02  0.00D+00 EMaxC= 1.00D-01 BMatC= 4.11D-02 BMatP= 3.11D-01
 IDIUse=3 WtCom= 8.83D-01 WtEn= 1.17D-01
 Coeff-Com: -0.339D+00 0.134D+01
 Coeff-En:   0.000D+00 0.100D+01
 Coeff:     -0.299D+00 0.130D+01
 Gap=     0.170 Goal=   None    Shift=    0.000
 RMSDP=1.72D-03 MaxDP=4.88D-02 DE=-1.00D-01 OVMax= 2.41D-01

 Cycle   3  Pass 1  IDiag  1:
 RMSU=  1.71D-03    CP:  9.88D-01  1.02D+00
 E= -424.556204160990     Delta-E=       -0.131598096425 Rises=F Damp=F
 DIIS: error= 2.08D-02 at cycle   3 NSaved=   3.
 NSaved= 3 IEnMin= 3 EnMin= -424.556204160990     IErMin= 2 ErrMin= 1.17D-02
 ErrMax= 2.08D-02  0.00D+00 EMaxC= 1.00D-01 BMatC= 6.97D-02 BMatP= 4.11D-02
 IDIUse=2 WtCom= 0.00D+00 WtEn= 1.00D+00
 Coeff-En:   0.000D+00 0.000D+00 0.100D+01
 Coeff:      0.000D+00 0.000D+00 0.100D+01
 Gap=     0.145 Goal=   None    Shift=    0.000
 RMSDP=4.20D-03 MaxDP=9.72D-02 DE=-1.32D-01 OVMax= 4.23D-01

 Cycle   4  Pass 1  IDiag  1:
 RMSU=  2.53D-03    CP:  9.99D-01  1.82D+00 -6.76D-01
 E= -424.055991329673     Delta-E=        0.500212831316 Rises=F Damp=F
 DIIS: error= 6.90D-02 at cycle   4 NSaved=   4.
 NSaved= 4 IEnMin= 3 EnMin= -424.556204160990     IErMin= 2 ErrMin= 1.17D-02
 ErrMax= 6.90D-02  0.00D+00 EMaxC= 1.00D-01 BMatC= 7.02D-01 BMatP= 4.11D-02
 IDIUse=2 WtCom= 0.00D+00 WtEn= 1.00D+00
 Coeff-En:   0.000D+00 0.000D+00 0.848D+00 0.152D+00
 Coeff:      0.000D+00 0.000D+00 0.848D+00 0.152D+00
 Gap=     0.143 Goal=   None    Shift=    0.000
 RMSDP=2.58D-03 MaxDP=6.80D-02 DE= 5.00D-01 OVMax= 2.01D-01

 Cycle   5  Pass 1  IDiag  1:
 RMSU=  5.39D-04    CP:  9.94D-01  1.11D+00  1.47D-01  4.40D-01
 E= -424.555893600433     Delta-E=       -0.499902270760 Rises=F Damp=F
 DIIS: error= 2.29D-02 at cycle   5 NSaved=   5.
 NSaved= 5 IEnMin= 3 EnMin= -424.556204160990     IErMin= 2 ErrMin= 1.17D-02
 ErrMax= 2.29D-02  0.00D+00 EMaxC= 1.00D-01 BMatC= 7.38D-02 BMatP= 4.11D-02
 IDIUse=2 WtCom= 0.00D+00 WtEn= 1.00D+00
 Coeff-En:   0.000D+00 0.000D+00 0.501D+00 0.000D+00 0.499D+00
 Coeff:      0.000D+00 0.000D+00 0.501D+00 0.000D+00 0.499D+00
 Gap=     0.178 Goal=   None    Shift=    0.000
 RMSDP=1.00D-03 MaxDP=2.38D-02 DE=-5.00D-01 OVMax= 8.33D-02

 Cycle   6  Pass 1  IDiag  1:
 RMSU=  1.55D-04    CP:  9.91D-01  9.84D-01  5.43D-01  1.82D-01  7.43D-01
 E= -424.611979755159     Delta-E=       -0.056086154726 Rises=F Damp=F
 DIIS: error= 1.83D-03 at cycle   6 NSaved=   6.
 NSaved= 6 IEnMin= 6 EnMin= -424.611979755159     IErMin= 6 ErrMin= 1.83D-03
 ErrMax= 1.83D-03  0.00D+00 EMaxC= 1.00D-01 BMatC= 5.71D-04 BMatP= 4.11D-02
 IDIUse=3 WtCom= 9.82D-01 WtEn= 1.83D-02
 Coeff-Com: -0.237D-01 0.409D-01 0.222D+00-0.471D-01 0.365D+00 0.443D+00
 Coeff-En:   0.000D+00 0.000D+00 0.000D+00 0.000D+00 0.000D+00 0.100D+01
 Coeff:     -0.233D-01 0.401D-01 0.217D+00-0.462D-01 0.358D+00 0.454D+00
 Gap=     0.178 Goal=   None    Shift=    0.000
 RMSDP=1.56D-04 MaxDP=5.34D-03 DE=-5.61D-02 OVMax= 7.03D-03

 Cycle   7  Pass 1  IDiag  1:
 RMSU=  7.06D-05    CP:  9.90D-01  1.02D+00  5.29D-01  2.17D-01  7.49D-01
                    CP:  5.81D-01
 E= -424.612390541844     Delta-E=       -0.000410786685 Rises=F Damp=F
 DIIS: error= 7.45D-04 at cycle   7 NSaved=   7.
 NSaved= 7 IEnMin= 7 EnMin= -424.612390541844     IErMin= 7 ErrMin= 7.45D-04
 ErrMax= 7.45D-04  0.00D+00 EMaxC= 1.00D-01 BMatC= 6.74D-05 BMatP= 5.71D-04
 IDIUse=3 WtCom= 9.93D-01 WtEn= 7.45D-03
 Coeff-Com:  0.360D-03-0.217D-02 0.418D-01-0.755D-02 0.561D-01 0.209D+00
 Coeff-Com:  0.702D+00
 Coeff-En:   0.000D+00 0.000D+00 0.000D+00 0.000D+00 0.000D+00 0.102D+00
 Coeff-En:   0.898D+00
 Coeff:      0.357D-03-0.215D-02 0.415D-01-0.750D-02 0.557D-01 0.209D+00
 Coeff:      0.703D+00
 Gap=     0.179 Goal=   None    Shift=    0.000
 RMSDP=4.70D-05 MaxDP=2.09D-03 DE=-4.11D-04 OVMax= 2.25D-03

 Cycle   8  Pass 1  IDiag  1:
 RMSU=  1.83D-05    CP:  9.90D-01  1.01D+00  5.36D-01  2.09D-01  7.42D-01
                    CP:  6.59D-01  7.29D-01
 E= -424.612439547973     Delta-E=       -0.000049006129 Rises=F Damp=F
 DIIS: error= 1.24D-04 at cycle   8 NSaved=   8.
 NSaved= 8 IEnMin= 8 EnMin= -424.612439547973     IErMin= 8 ErrMin= 1.24D-04
 ErrMax= 1.24D-04  0.00D+00 EMaxC= 1.00D-01 BMatC= 3.88D-06 BMatP= 6.74D-05
 IDIUse=3 WtCom= 9.99D-01 WtEn= 1.24D-03
 Coeff-Com:  0.221D-02-0.409D-02 0.851D-02-0.109D-02 0.503D-02 0.883D-01
 Coeff-Com:  0.407D+00 0.495D+00
 Coeff-En:   0.000D+00 0.000D+00 0.000D+00 0.000D+00 0.000D+00 0.000D+00
 Coeff-En:   0.000D+00 0.100D+01
 Coeff:      0.221D-02-0.409D-02 0.850D-02-0.109D-02 0.502D-02 0.882D-01
 Coeff:      0.406D+00 0.495D+00
 Gap=     0.179 Goal=   None    Shift=    0.000
 RMSDP=8.47D-06 MaxDP=2.29D-04 DE=-4.90D-05 OVMax= 3.45D-04

 Cycle   9  Pass 1  IDiag  1:
 RMSU=  3.51D-06    CP:  9.90D-01  1.01D+00  5.37D-01  2.09D-01  7.40D-01
                    CP:  6.60D-01  7.77D-01  6.47D-01
 E= -424.612442947606     Delta-E=       -0.000003399633 Rises=F Damp=F
 DIIS: error= 2.91D-05 at cycle   9 NSaved=   9.
 NSaved= 9 IEnMin= 9 EnMin= -424.612442947606     IErMin= 9 ErrMin= 2.91D-05
 ErrMax= 2.91D-05  0.00D+00 EMaxC= 1.00D-01 BMatC= 1.21D-07 BMatP= 3.88D-06
 IDIUse=1 WtCom= 1.00D+00 WtEn= 0.00D+00
 Coeff-Com:  0.894D-03-0.126D-02 0.186D-02-0.260D-03-0.287D-03 0.241D-01
 Coeff-Com:  0.131D+00 0.219D+00 0.625D+00
 Coeff:      0.894D-03-0.126D-02 0.186D-02-0.260D-03-0.287D-03 0.241D-01
 Coeff:      0.131D+00 0.219D+00 0.625D+00
 Gap=     0.179 Goal=   None    Shift=    0.000
 RMSDP=1.43D-06 MaxDP=3.58D-05 DE=-3.40D-06 OVMax= 5.60D-05

 Cycle  10  Pass 1  IDiag  1:
 RMSU=  8.96D-07    CP:  9.90D-01  1.01D+00  5.37D-01  2.09D-01  7.41D-01
                    CP:  6.60D-01  7.85D-01  6.33D-01  7.59D-01
 E= -424.612443053666     Delta-E=       -0.000000106059 Rises=F Damp=F
 DIIS: error= 4.25D-06 at cycle  10 NSaved=  10.
 NSaved=10 IEnMin=10 EnMin= -424.612443053666     IErMin=10 ErrMin= 4.25D-06
 ErrMax= 4.25D-06  0.00D+00 EMaxC= 1.00D-01 BMatC= 5.54D-09 BMatP= 1.21D-07
 IDIUse=1 WtCom= 1.00D+00 WtEn= 0.00D+00
 Coeff-Com:  0.336D-03-0.444D-03 0.222D-03 0.200D-04-0.602D-03 0.469D-02
 Coeff-Com:  0.278D-01 0.593D-01 0.244D+00 0.664D+00
 Coeff:      0.336D-03-0.444D-03 0.222D-03 0.200D-04-0.602D-03 0.469D-02
 Coeff:      0.278D-01 0.593D-01 0.244D+00 0.664D+00
 Gap=     0.179 Goal=   None    Shift=    0.000
 RMSDP=4.82D-07 MaxDP=1.84D-05 DE=-1.06D-07 OVMax= 1.52D-05

 Cycle  11  Pass 1  IDiag  1:
 RMSU=  2.08D-07    CP:  9.90D-01  1.01D+00  5.37D-01  2.09D-01  7.41D-01
                    CP:  6.60D-01  7.84D-01  6.42D-01  7.74D-01  8.24D-01
 E= -424.612443041512     Delta-E=        0.000000012154 Rises=F Damp=F
 DIIS: error= 8.54D-07 at cycle  11 NSaved=  11.
 NSaved=11 IEnMin=10 EnMin= -424.612443053666     IErMin=11 ErrMin= 8.54D-07
 ErrMax= 8.54D-07  0.00D+00 EMaxC= 1.00D-01 BMatC= 3.96D-10 BMatP= 5.54D-09
 IDIUse=1 WtCom= 1.00D+00 WtEn= 0.00D+00
 Coeff-Com:  0.147D-03-0.197D-03 0.814D-04 0.133D-04-0.236D-03 0.166D-02
 Coeff-Com:  0.948D-02 0.223D-01 0.103D+00 0.346D+00 0.518D+00
 Coeff:      0.147D-03-0.197D-03 0.814D-04 0.133D-04-0.236D-03 0.166D-02
 Coeff:      0.948D-02 0.223D-01 0.103D+00 0.346D+00 0.518D+00
 Gap=     0.179 Goal=   None    Shift=    0.000
 RMSDP=1.12D-07 MaxDP=4.09D-06 DE= 1.22D-08 OVMax= 3.82D-06

 Cycle  12  Pass 1  IDiag  1:
 RMSU=  6.81D-08    CP:  9.90D-01  1.01D+00  5.37D-01  2.09D-01  7.40D-01
                    CP:  6.60D-01  7.84D-01  6.42D-01  7.76D-01  8.17D-01
                    CP:  6.93D-01
 E= -424.612443041849     Delta-E=       -0.000000000337 Rises=F Damp=F
 DIIS: error= 3.53D-07 at cycle  12 NSaved=  12.
 NSaved=12 IEnMin=10 EnMin= -424.612443053666     IErMin=12 ErrMin= 3.53D-07
 ErrMax= 3.53D-07  0.00D+00 EMaxC= 1.00D-01 BMatC= 3.67D-11 BMatP= 3.96D-10
 IDIUse=1 WtCom= 1.00D+00 WtEn= 0.00D+00
 Coeff-Com:  0.213D-04-0.218D-04 0.129D-04-0.132D-05-0.136D-04 0.358D-04
 Coeff-Com:  0.371D-03 0.226D-02 0.161D-01 0.805D-01 0.253D+00 0.648D+00
 Coeff:      0.213D-04-0.218D-04 0.129D-04-0.132D-05-0.136D-04 0.358D-04
 Coeff:      0.371D-03 0.226D-02 0.161D-01 0.805D-01 0.253D+00 0.648D+00
 Gap=     0.179 Goal=   None    Shift=    0.000
 RMSDP=2.77D-08 MaxDP=8.38D-07 DE=-3.37D-10 OVMax= 9.87D-07

 Cycle  13  Pass 1  IDiag  1:
 RMSU=  1.67D-08    CP:  9.90D-01  1.01D+00  5.37D-01  2.09D-01  7.40D-01
                    CP:  6.60D-01  7.84D-01  6.42D-01  7.76D-01  8.23D-01
                    CP:  7.14D-01  7.87D-01
 E= -424.612443041873     Delta-E=       -0.000000000024 Rises=F Damp=F
 DIIS: error= 5.02D-08 at cycle  13 NSaved=  13.
 NSaved=13 IEnMin=10 EnMin= -424.612443053666     IErMin=13 ErrMin= 5.02D-08
 ErrMax= 5.02D-08  0.00D+00 EMaxC= 1.00D-01 BMatC= 7.44D-13 BMatP= 3.67D-11
 IDIUse=1 WtCom= 1.00D+00 WtEn= 0.00D+00
 Coeff-Com:  0.370D-05-0.365D-05 0.280D-05-0.416D-06 0.108D-05-0.104D-04
 Coeff-Com: -0.750D-04 0.190D-03 0.220D-02 0.133D-01 0.565D-01 0.190D+00
 Coeff-Com:  0.738D+00
 Coeff:      0.370D-05-0.365D-05 0.280D-05-0.416D-06 0.108D-05-0.104D-04
 Coeff:     -0.750D-04 0.190D-03 0.220D-02 0.133D-01 0.565D-01 0.190D+00
 Coeff:      0.738D+00
 Gap=     0.179 Goal=   None    Shift=    0.000
 RMSDP=5.82D-09 MaxDP=2.02D-07 DE=-2.43D-11 OVMax= 1.60D-07

 Error on total polarization charges =  0.01254
 SCF Done:  E(RB-P86) =  -424.612443042     A.U. after   13 cycles
            NFock= 13  Conv=0.58D-08     -V/T= 2.0050
 KE= 4.224890005968D+02 PE=-1.928384546498D+03 EE= 6.124140444011D+02
 Leave Link  502 at Mon Feb 22 21:15:49 2021, MaxMem=   104857600 cpu:             412.2 elap:              13.2
 (Enter /sw/arch/RedHatEnterpriseServer7/EB_production/2019/software/Gaussian/g16.c01/l601.exe)
 Copying SCF densities to generalized density rwf, IOpCl= 0 IROHF=0.

 **********************************************************************

            Population analysis using the SCF Density.

 **********************************************************************

 Orbital symmetries:
       Occupied  (A) (A) (A) (A) (A) (A) (A) (A) (A) (A) (A) (A)
                 (A) (A) (A) (A) (A) (A) (A) (A) (A) (A) (A) (A)
                 (A) (A) (A) (A) (A) (A) (A) (A) (A) (A) (A)
       Virtual   (A) (A) (A) (A) (A) (A) (A) (A) (A) (A) (A) (A)
                 (A) (A) (A) (A) (A) (A) (A) (A) (A) (A) (A) (A)
                 (A) (A) (A) (A) (A) (A) (A) (A) (A) (A) (A) (A)
                 (A) (A) (A) (A) (A) (A) (A) (A) (A) (A) (A) (A)
                 (A) (A) (A) (A) (A) (A) (A) (A) (A) (A) (A) (A)
                 (A) (A) (A) (A) (A) (A) (A) (A) (A) (A) (A) (A)
                 (A) (A) (A) (A) (A) (A) (A) (A) (A) (A) (A) (A)
                 (A) (A) (A) (A) (A) (A) (A) (A) (A) (A) (A) (A)
                 (A) (A) (A) (A) (A) (A) (A) (A) (A) (A) (A) (A)
                 (A) (A) (A) (A) (A) (A) (A) (A) (A) (A) (A) (A)
                 (A) (A) (A) (A) (A) (A) (A) (A) (A) (A) (A) (A)
                 (A) (A) (A) (A) (A) (A) (A) (A) (A) (A) (A) (A)
                 (A) (A) (A) (A) (A) (A) (A) (A) (A) (A) (A) (A)
                 (A) (A) (A) (A) (A) (A) (A) (A) (A) (A) (A) (A)
                 (A) (A) (A) (A) (A) (A) (A) (A) (A) (A) (A) (A)
                 (A) (A) (A) (A) (A) (A) (A) (A) (A) (A) (A) (A)
                 (A) (A) (A) (A) (A) (A) (A) (A) (A) (A) (A) (A)
                 (A) (A) (A) (A)
 The electronic state is 1-A.
 Alpha  occ. eigenvalues --  -18.82088 -18.75748 -10.03306  -9.92391  -9.90523
 Alpha  occ. eigenvalues --   -9.89970  -9.89524  -9.89375  -9.89134  -1.01481
 Alpha  occ. eigenvalues --   -0.92119  -0.76454  -0.69668  -0.67632  -0.61244
 Alpha  occ. eigenvalues --   -0.55750  -0.54949  -0.50080  -0.46357  -0.43266
 Alpha  occ. eigenvalues --   -0.41854  -0.40952  -0.39658  -0.38979  -0.36456
 Alpha  occ. eigenvalues --   -0.34119  -0.33744  -0.33499  -0.31307  -0.30875
 Alpha  occ. eigenvalues --   -0.28518  -0.28374  -0.27734  -0.26935  -0.23308
 Alpha virt. eigenvalues --   -0.05385   0.01251   0.02798   0.04176   0.05283
 Alpha virt. eigenvalues --    0.06047   0.08162   0.08957   0.09374   0.09776
 Alpha virt. eigenvalues --    0.10131   0.10813   0.11278   0.12192   0.13428
 Alpha virt. eigenvalues --    0.15812   0.16212   0.17877   0.17992   0.18475
 Alpha virt. eigenvalues --    0.19961   0.20624   0.21335   0.22326   0.23274
 Alpha virt. eigenvalues --    0.24313   0.25227   0.27527   0.28942   0.29909
 Alpha virt. eigenvalues --    0.30497   0.32392   0.33601   0.34622   0.36283
 Alpha virt. eigenvalues --    0.37819   0.38325   0.38906   0.39025   0.40172
 Alpha virt. eigenvalues --    0.40805   0.40945   0.41486   0.41964   0.42589
 Alpha virt. eigenvalues --    0.42634   0.42816   0.43836   0.44821   0.45090
 Alpha virt. eigenvalues --    0.45437   0.46290   0.47098   0.48080   0.49713
 Alpha virt. eigenvalues --    0.50459   0.53037   0.55308   0.55878   0.58052
 Alpha virt. eigenvalues --    0.60781   0.62568   0.67918   0.70480   0.70959
 Alpha virt. eigenvalues --    0.71667   0.75955   0.76718   0.82384   0.89105
 Alpha virt. eigenvalues --    1.04147   1.05236   1.07618   1.15274   1.18022
 Alpha virt. eigenvalues --    1.21922   1.23019   1.23788   1.24263   1.25483
 Alpha virt. eigenvalues --    1.26202   1.27367   1.28072   1.28984   1.30244
 Alpha virt. eigenvalues --    1.31452   1.31765   1.33144   1.34540   1.37079
 Alpha virt. eigenvalues --    1.38452   1.38886   1.40960   1.42050   1.43612
 Alpha virt. eigenvalues --    1.44763   1.46288   1.46566   1.49351   1.50635
 Alpha virt. eigenvalues --    1.52070   1.54948   1.56653   1.56790   1.58851
 Alpha virt. eigenvalues --    1.59918   1.62633   1.63943   1.65146   1.65175
 Alpha virt. eigenvalues --    1.65572   1.66507   1.73783   1.74177   1.74345
 Alpha virt. eigenvalues --    1.74638   1.75285   1.78785   1.80128   1.83770
 Alpha virt. eigenvalues --    1.85149   1.86266   1.87761   1.88668   1.89760
 Alpha virt. eigenvalues --    1.90695   1.91518   1.94223   1.97404   1.98852
 Alpha virt. eigenvalues --    2.02044   2.03353   2.08077   2.10627   2.14781
 Alpha virt. eigenvalues --    2.21288   2.23960   2.24519   2.26656   2.26974
 Alpha virt. eigenvalues --    2.29698   2.30672   2.34288   2.37662   2.38640
 Alpha virt. eigenvalues --    2.40490   2.42708   2.45068   2.46818   2.48207
 Alpha virt. eigenvalues --    2.49848   2.50997   2.52615   2.53278   2.54442
 Alpha virt. eigenvalues --    2.55127   2.55683   2.57151   2.58027   2.58124
 Alpha virt. eigenvalues --    2.59468   2.61265   2.62565   2.64950   2.65556
 Alpha virt. eigenvalues --    2.67162   2.68183   2.73002   2.76809   2.78700
 Alpha virt. eigenvalues --    2.81818   2.83582   2.84118   2.89234   2.89648
 Alpha virt. eigenvalues --    2.93534   2.95696   2.98256   3.00646   3.07326
 Alpha virt. eigenvalues --    3.08140   3.12789   3.15989   3.17847   3.29233
 Alpha virt. eigenvalues --    3.30918   3.31454   3.32340   3.33480   3.33892
 Alpha virt. eigenvalues --    3.38136   3.38407   3.39376   3.41814   3.42806
 Alpha virt. eigenvalues --    3.47412   3.83355   4.00239   4.17956  21.70346
 Alpha virt. eigenvalues --   21.75902  21.81503  21.83377  21.84723  21.91538
 Alpha virt. eigenvalues --   21.92574  43.09526  43.17500
          Condensed to atoms (all electrons):
               1          2          3          4          5          6
     1  O    7.988275   0.629186  -0.123655  -0.132530  -0.007813  -0.000112
     2  C    0.629186   5.028323   0.390480  -0.121284   0.013050   0.000906
     3  O   -0.123655   0.390480   7.848043  -0.126418   0.001085  -0.000385
     4  C   -0.132530  -0.121284  -0.126418   5.975763   0.100802  -0.022879
     5  C   -0.007813   0.013050   0.001085   0.100802   5.399629   0.252334
     6  C   -0.000112   0.000906  -0.000385  -0.022879   0.252334   5.170313
     7  C    0.001004   0.002865   0.000050  -0.009117  -0.066648   0.286231
     8  C   -0.001747  -0.004386  -0.000772  -0.050364  -0.014260  -0.071971
     9  C   -0.028027  -0.073954  -0.014606   0.267400  -0.012689  -0.023426
    10  H    0.002552  -0.023927   0.288075   0.017904  -0.000821   0.000065
    11  H    0.007316  -0.013332   0.012276   0.376555  -0.064801  -0.000869
    12  H   -0.000416  -0.001478  -0.000033  -0.037395   0.402039  -0.035837
    13  H    0.016706  -0.019804   0.000964  -0.015951   0.373489  -0.036045
    14  H   -0.000000  -0.000689   0.000005   0.012287  -0.039278   0.400013
    15  H    0.000015  -0.001413   0.000003  -0.007188  -0.046643   0.417313
    16  H   -0.000001   0.000115  -0.000000  -0.001390   0.012630  -0.037041
    17  H   -0.000097  -0.000676  -0.000000  -0.004006  -0.004089  -0.044099
    18  H    0.000012  -0.000023  -0.000006   0.013841  -0.002484   0.012480
    19  H    0.000011  -0.000792   0.000066  -0.007265  -0.005031  -0.001013
    20  H    0.008484   0.004797   0.001125  -0.044417  -0.017983  -0.001078
    21  H    0.000008  -0.000043   0.004737  -0.038229   0.014209  -0.002055
               7          8          9         10         11         12
     1  O    0.001004  -0.001747  -0.028027   0.002552   0.007316  -0.000416
     2  C    0.002865  -0.004386  -0.073954  -0.023927  -0.013332  -0.001478
     3  O    0.000050  -0.000772  -0.014606   0.288075   0.012276  -0.000033
     4  C   -0.009117  -0.050364   0.267400   0.017904   0.376555  -0.037395
     5  C   -0.066648  -0.014260  -0.012689  -0.000821  -0.064801   0.402039
     6  C    0.286231  -0.071971  -0.023426   0.000065  -0.000869  -0.035837
     7  C    5.195968   0.291205  -0.077718  -0.000015  -0.004073   0.011246
     8  C    0.291205   5.156692   0.297583   0.000106  -0.010454  -0.001244
     9  C   -0.077718   0.297583   5.267795   0.000913  -0.037305   0.009438
    10  H   -0.000015   0.000106   0.000913   0.384554  -0.000781  -0.000016
    11  H   -0.004073  -0.010454  -0.037305  -0.000781   0.540374  -0.001935
    12  H    0.011246  -0.001244   0.009438  -0.000016  -0.001935   0.527992
    13  H   -0.005574  -0.001866  -0.008314  -0.000021   0.008915  -0.017126
    14  H   -0.033670   0.012840  -0.002048  -0.000001  -0.000133  -0.002814
    15  H   -0.051970  -0.001656  -0.003191  -0.000000   0.005902  -0.004630
    16  H    0.396068  -0.037755   0.013461   0.000000  -0.000094  -0.000379
    17  H    0.405295  -0.043364  -0.003841   0.000000   0.000546  -0.000276
    18  H   -0.032854   0.397443  -0.039854  -0.000002   0.000263   0.000066
    19  H   -0.051411   0.413898  -0.043285  -0.000001   0.006586  -0.000017
    20  H   -0.005001  -0.050574   0.405408  -0.000135   0.009306  -0.000082
    21  H    0.011112  -0.026870   0.387220  -0.000278  -0.003714  -0.000377
              13         14         15         16         17         18
     1  O    0.016706  -0.000000   0.000015  -0.000001  -0.000097   0.000012
     2  C   -0.019804  -0.000689  -0.001413   0.000115  -0.000676  -0.000023
     3  O    0.000964   0.000005   0.000003  -0.000000  -0.000000  -0.000006
     4  C   -0.015951   0.012287  -0.007188  -0.001390  -0.004006   0.013841
     5  C    0.373489  -0.039278  -0.046643   0.012630  -0.004089  -0.002484
     6  C   -0.036045   0.400013   0.417313  -0.037041  -0.044099   0.012480
     7  C   -0.005574  -0.033670  -0.051970   0.396068   0.405295  -0.032854
     8  C   -0.001866   0.012840  -0.001656  -0.037755  -0.043364   0.397443
     9  C   -0.008314  -0.002048  -0.003191   0.013461  -0.003841  -0.039854
    10  H   -0.000021  -0.000001  -0.000000   0.000000   0.000000  -0.000002
    11  H    0.008915  -0.000133   0.005902  -0.000094   0.000546   0.000263
    12  H   -0.017126  -0.002814  -0.004630  -0.000379  -0.000276   0.000066
    13  H    0.549595  -0.004756   0.008070  -0.000184   0.005488   0.000104
    14  H   -0.004756   0.537996  -0.021997  -0.002638  -0.004969  -0.000425
    15  H    0.008070  -0.021997   0.563276  -0.003930   0.008763  -0.000269
    16  H   -0.000184  -0.002638  -0.003930   0.542207  -0.020422  -0.002227
    17  H    0.005488  -0.004969   0.008763  -0.020422   0.566989  -0.005057
    18  H    0.000104  -0.000425  -0.000269  -0.002227  -0.005057   0.534906
    19  H    0.000482  -0.000296   0.005553  -0.003818   0.008685  -0.020900
    20  H    0.007013   0.000062   0.000397  -0.000223   0.005438  -0.003519
    21  H   -0.000472   0.000081  -0.000039  -0.000413  -0.000262  -0.003678
              19         20         21
     1  O    0.000011   0.008484   0.000008
     2  C   -0.000792   0.004797  -0.000043
     3  O    0.000066   0.001125   0.004737
     4  C   -0.007265  -0.044417  -0.038229
     5  C   -0.005031  -0.017983   0.014209
     6  C   -0.001013  -0.001078  -0.002055
     7  C   -0.051411  -0.005001   0.011112
     8  C    0.413898  -0.050574  -0.026870
     9  C   -0.043285   0.405408   0.387220
    10  H   -0.000001  -0.000135  -0.000278
    11  H    0.006586   0.009306  -0.003714
    12  H   -0.000017  -0.000082  -0.000377
    13  H    0.000482   0.007013  -0.000472
    14  H   -0.000296   0.000062   0.000081
    15  H    0.005553   0.000397  -0.000039
    16  H   -0.003818  -0.000223  -0.000413
    17  H    0.008685   0.005438  -0.000262
    18  H   -0.020900  -0.003519  -0.003678
    19  H    0.561020   0.008336  -0.004857
    20  H    0.008336   0.547489  -0.018848
    21  H   -0.004857  -0.018848   0.526644
 Mulliken charges:
               1
     1  O   -0.359171
     2  C    0.192080
     3  O   -0.281033
     4  C   -0.146118
     5  C   -0.286726
     6  C   -0.262844
     7  C   -0.262993
     8  C   -0.252485
     9  C   -0.280961
    10  H    0.331830
    11  H    0.169451
    12  H    0.153275
    13  H    0.139285
    14  H    0.150429
    15  H    0.133633
    16  H    0.146034
    17  H    0.129954
    18  H    0.152185
    19  H    0.134049
    20  H    0.144006
    21  H    0.156121
 Sum of Mulliken charges =  -0.00000
 Mulliken charges with hydrogens summed into heavy atoms:
               1
     1  O   -0.359171
     2  C    0.192080
     3  O    0.050796
     4  C    0.023333
     5  C    0.005834
     6  C    0.021218
     7  C    0.012995
     8  C    0.033749
     9  C    0.019166
 Electronic spatial extent (au):  <R**2>=           1379.5931
 Charge=             -0.0000 electrons
 Dipole moment (field-independent basis, Debye):
    X=              1.1122    Y=              1.7234    Z=             -1.7386  Tot=              2.6888
 Quadrupole moment (field-independent basis, Debye-Ang):
   XX=            -49.8682   YY=            -56.8877   ZZ=            -58.1294
   XY=             -4.5882   XZ=              3.9911   YZ=              3.2234
 Traceless Quadrupole moment (field-independent basis, Debye-Ang):
   XX=              5.0936   YY=             -1.9260   ZZ=             -3.1676
   XY=             -4.5882   XZ=              3.9911   YZ=              3.2234
 Octapole moment (field-independent basis, Debye-Ang**2):
  XXX=            -58.1794  YYY=              1.9611  ZZZ=             -2.0231  XYY=             -0.3893
  XXY=             16.0265  XXZ=            -11.1741  XZZ=              2.5430  YZZ=              1.8056
  YYZ=             -1.1146  XYZ=             -6.7786
 Hexadecapole moment (field-independent basis, Debye-Ang**3):
 XXXX=           -989.9076 YYYY=           -409.5363 ZZZZ=           -172.7197 XXXY=            -59.9833
 XXXZ=             35.4267 YYYX=             -7.4729 YYYZ=              1.2039 ZZZX=              4.8266
 ZZZY=             -0.6534 XXYY=           -276.7635 XXZZ=           -250.7369 YYZZ=            -99.6474
 XXYZ=             12.4546 YYXZ=              6.7828 ZZXY=             -2.2365
 N-N= 4.688690584585D+02 E-N=-1.928384551371D+03  KE= 4.224890005968D+02
 No NMR shielding tensors so no spin-rotation constants.
 Leave Link  601 at Mon Feb 22 21:15:49 2021, MaxMem=   104857600 cpu:               6.1 elap:               0.2
 (Enter /sw/arch/RedHatEnterpriseServer7/EB_production/2019/software/Gaussian/g16.c01/l701.exe)
 ... and contract with generalized density number  0.
 Compute integral first derivatives.
 R6Disp: Adding Grimme-D3 dispersion energy 1st derivatives to the gradient.
 PrsmSu:  requested number of processors reduced to:  29 ShMem   1 Linda.
 D1PCM: PCM CHGder 1st derivatives, ID1Alg=3 FixD1E=F DoIter=F DoCFld=F I1PDM=0.
 GePol: Maximum number of non-zero 1st derivatives   =     210
 CoulSu:  requested number of processors reduced to:  29 ShMem   1 Linda.
 CoulSu:  requested number of processors reduced to:  30 ShMem   1 Linda.
 Leave Link  701 at Mon Feb 22 21:15:52 2021, MaxMem=   104857600 cpu:              25.6 elap:               0.9
 (Enter /sw/arch/RedHatEnterpriseServer7/EB_production/2019/software/Gaussian/g16.c01/l702.exe)
 L702 exits ... SP integral derivatives will be done elsewhere.
 Leave Link  702 at Mon Feb 22 21:15:52 2021, MaxMem=   104857600 cpu:               0.6 elap:               0.0
 (Enter /sw/arch/RedHatEnterpriseServer7/EB_production/2019/software/Gaussian/g16.c01/l703.exe)
 Integral derivatives from FoFJK, PRISM(SPDF).
 Compute integral first derivatives, UseDBF=F ICtDFT=           0.
 Calling FoFJK, ICntrl=      2527 FMM=F ISym2X=0 I1Cent= 0 IOpClX= 0 NMat=1 NMatS=1 NMatT=0.
 FoFJK:  IHMeth= 1 ICntrl=    2527 DoSepK=F KAlg= 0 I1Cent=           0 FoldK=F
 IRaf=         0 NMat=       1 IRICut=       1 DoRegI=T DoRafI=F ISym2E= 0 IDoP0=0 IntGTp=1.
 FoFCou: FMM=F IPFlag=           0 FMFlag=      100000 FMFlg1=         800
         NFxFlg=           0 DoJE=F BraDBF=F KetDBF=F FulRan=T
         wScrn=  0.000000 ICntrl=      2527 IOpCl=  0 I1Cent=           0 NGrid=           0
         NMat0=    1 NMatS0=      1 NMatT0=    0 NMatD0=    1 NMtDS0=    0 NMtDT0=    0
 Symmetry not used in FoFCou.
 Leave Link  703 at Mon Feb 22 21:15:54 2021, MaxMem=   104857600 cpu:              59.9 elap:               1.9
 (Enter /sw/arch/RedHatEnterpriseServer7/EB_production/2019/software/Gaussian/g16.c01/l716.exe)
 Dipole        = 4.37557855D-01 6.78020252D-01-6.84036709D-01
 ***** Axes restored to original set *****
 -------------------------------------------------------------------
 Center     Atomic                   Forces (Hartrees/Bohr)
 Number     Number              X              Y              Z
 -------------------------------------------------------------------
      1        8          -0.020696183   -0.011576276    0.005293482
      2        6           0.070956016    0.022795090   -0.024161417
      3        8          -0.037770190   -0.014995902    0.011668484
      4        6          -0.018064230    0.001886251    0.008282652
      5        6          -0.006141889   -0.004704834    0.006331347
      6        6           0.011168709   -0.011923005    0.005732261
      7        6          -0.001558569   -0.008662820   -0.012715893
      8        6           0.007433109    0.012464504   -0.008906671
      9        6          -0.009124092    0.000923837    0.002528029
     10        1           0.005509786    0.017512400    0.006405371
     11        1          -0.005460459   -0.003362494    0.000254541
     12        1           0.001589874    0.000604142   -0.004619334
     13        1           0.004333924   -0.001036014    0.000065817
     14        1          -0.000703885    0.005154432   -0.001549029
     15        1          -0.005750432   -0.001657880   -0.002228957
     16        1          -0.003865811    0.002496880    0.004323150
     17        1           0.005242095    0.002795018    0.002779599
     18        1           0.000812284   -0.003176235    0.004224208
     19        1          -0.005283064   -0.002814864   -0.002035249
     20        1           0.005365993    0.002259257   -0.000757846
     21        1           0.002007014   -0.004981487   -0.000914544
 -------------------------------------------------------------------
 Cartesian Forces:  Max     0.070956016 RMS     0.013022029
 Leave Link  716 at Mon Feb 22 21:15:54 2021, MaxMem=   104857600 cpu:               0.9 elap:               0.1
 (Enter /sw/arch/RedHatEnterpriseServer7/EB_production/2019/software/Gaussian/g16.c01/l103.exe)

 GradGradGradGradGradGradGradGradGradGradGradGradGradGradGradGradGradGrad
 Berny optimization.
 FormGI is forming the generalized inverse of G from B-inverse, IUseBI=4.
 Internal  Forces:  Max     0.035753149 RMS     0.006187880
 Search for a local minimum.
 Step number   1 out of a maximum of  126
 All quantities printed in internal units (Hartrees-Bohrs-Radians)
 RMS Force = .61879D-02 SwitMx=.10000D-02 MixMth= 1
 Mixed Optimization -- RFO/linear search
 Second derivative matrix not updated -- first step.
 ITU=  0
     Eigenvalues ---    0.00409   0.00414   0.00512   0.00982   0.01296
     Eigenvalues ---    0.01798   0.01851   0.02282   0.03619   0.03751
     Eigenvalues ---    0.03864   0.04093   0.04698   0.04765   0.04786
     Eigenvalues ---    0.05349   0.05395   0.05479   0.05884   0.06564
     Eigenvalues ---    0.08048   0.08075   0.08082   0.08118   0.08121
     Eigenvalues ---    0.08303   0.08660   0.12040   0.12071   0.14196
     Eigenvalues ---    0.16000   0.16118   0.17443   0.21193   0.24996
     Eigenvalues ---    0.25000   0.25872   0.26026   0.26490   0.27256
     Eigenvalues ---    0.27283   0.27501   0.34091   0.34150   0.34186
     Eigenvalues ---    0.34263   0.34321   0.34399   0.34423   0.34429
     Eigenvalues ---    0.34449   0.34456   0.34487   0.34572   0.51211
     Eigenvalues ---    0.53895   0.82196
 RFO step:  Lambda=-1.83027312D-02 EMin= 4.08635793D-03
 Linear search not attempted -- first point.
 Iteration  1 RMS(Cart)=  0.04049028 RMS(Int)=  0.00164340
 Iteration  2 RMS(Cart)=  0.00218494 RMS(Int)=  0.00008572
 Iteration  3 RMS(Cart)=  0.00000122 RMS(Int)=  0.00008572
 Iteration  4 RMS(Cart)=  0.00000000 RMS(Int)=  0.00008572
 ITry= 1 IFail=0 DXMaxC= 2.15D-01 DCOld= 1.00D+10 DXMaxT= 3.00D-01 DXLimC= 3.00D+00 Rises=F
 Variable       Old X    -DE/DX   Delta X   Delta X   Delta X     New X
                                 (Linear)    (Quad)   (Total)
    R1        2.36753  -0.02410   0.00000  -0.02868  -0.02868   2.33884
    R2        2.56127  -0.00905   0.00000  -0.01624  -0.01624   2.54503
    R3        2.80377   0.00971   0.00000   0.02698   0.02698   2.83075
    R4        1.85363  -0.00497   0.00000  -0.00938  -0.00938   1.84425
    R5        2.94943  -0.01104   0.00000  -0.03886  -0.03883   2.91059
    R6        2.94415  -0.00470   0.00000  -0.01553  -0.01549   2.92866
    R7        2.07176   0.00582   0.00000   0.01621   0.01621   2.08797
    R8        2.93581  -0.00691   0.00000  -0.02437  -0.02439   2.91141
    R9        2.06792   0.00419   0.00000   0.01158   0.01158   2.07950
   R10        2.07017   0.00326   0.00000   0.00905   0.00905   2.07922
   R11        2.93361  -0.00634   0.00000  -0.02243  -0.02247   2.91114
   R12        2.06516   0.00511   0.00000   0.01407   0.01407   2.07923
   R13        2.06662   0.00637   0.00000   0.01759   0.01759   2.08421
   R14        2.93097  -0.00625   0.00000  -0.02102  -0.02105   2.90992
   R15        2.06375   0.00606   0.00000   0.01665   0.01665   2.08040
   R16        2.06578   0.00656   0.00000   0.01807   0.01807   2.08386
   R17        2.92970  -0.00646   0.00000  -0.02125  -0.02122   2.90848
   R18        2.06568   0.00508   0.00000   0.01399   0.01399   2.07967
   R19        2.06612   0.00632   0.00000   0.01743   0.01743   2.08355
   R20        2.06889   0.00508   0.00000   0.01408   0.01408   2.08297
   R21        2.06622   0.00506   0.00000   0.01396   0.01396   2.08018
    A1        2.06621   0.02146   0.00000   0.07992   0.07990   2.14611
    A2        2.11218   0.01428   0.00000   0.05315   0.05313   2.16531
    A3        2.10448  -0.03575   0.00000  -0.13332  -0.13334   1.97114
    A4        2.10109  -0.03485   0.00000  -0.19546  -0.19546   1.90564
    A5        1.96733  -0.00264   0.00000  -0.01739  -0.01741   1.94992
    A6        1.92942  -0.00231   0.00000  -0.01793  -0.01796   1.91147
    A7        1.87603   0.00218   0.00000   0.01775   0.01780   1.89383
    A8        1.92829   0.00372   0.00000   0.01230   0.01211   1.94040
    A9        1.87820   0.00041   0.00000   0.01364   0.01368   1.89189
   A10        1.88105  -0.00129   0.00000  -0.00691  -0.00698   1.87408
   A11        1.94961  -0.00258   0.00000  -0.01454  -0.01446   1.93515
   A12        1.91658  -0.00019   0.00000  -0.00623  -0.00616   1.91042
   A13        1.92031  -0.00112   0.00000  -0.01443  -0.01432   1.90599
   A14        1.89805   0.00194   0.00000   0.01890   0.01878   1.91683
   A15        1.89770   0.00280   0.00000   0.02090   0.02070   1.91841
   A16        1.88007  -0.00072   0.00000  -0.00364  -0.00402   1.87605
   A17        1.95485   0.00120   0.00000  -0.00008  -0.00018   1.95467
   A18        1.90732  -0.00135   0.00000  -0.00854  -0.00850   1.89883
   A19        1.90691   0.00020   0.00000   0.00493   0.00495   1.91186
   A20        1.90695   0.00062   0.00000   0.00711   0.00713   1.91409
   A21        1.90664  -0.00048   0.00000   0.00222   0.00225   1.90889
   A22        1.87964  -0.00024   0.00000  -0.00590  -0.00592   1.87373
   A23        1.95080  -0.00074   0.00000  -0.00419  -0.00425   1.94655
   A24        1.90891   0.00024   0.00000   0.00517   0.00519   1.91409
   A25        1.90830   0.00032   0.00000  -0.00106  -0.00105   1.90725
   A26        1.90806   0.00052   0.00000   0.00610   0.00613   1.91419
   A27        1.90585   0.00024   0.00000   0.00002   0.00002   1.90587
   A28        1.88058  -0.00058   0.00000  -0.00615  -0.00615   1.87443
   A29        1.94672   0.00069   0.00000   0.00232   0.00233   1.94905
   A30        1.90891   0.00099   0.00000   0.00895   0.00895   1.91786
   A31        1.91018  -0.00038   0.00000   0.00077   0.00077   1.91096
   A32        1.90835  -0.00133   0.00000  -0.00791  -0.00792   1.90042
   A33        1.90929   0.00014   0.00000  -0.00066  -0.00068   1.90861
   A34        1.87915  -0.00014   0.00000  -0.00369  -0.00372   1.87544
   A35        1.95418  -0.00339   0.00000  -0.01706  -0.01697   1.93721
   A36        1.91790  -0.00122   0.00000  -0.01732  -0.01726   1.90064
   A37        1.91556   0.00070   0.00000   0.00092   0.00102   1.91657
   A38        1.89612   0.00269   0.00000   0.01652   0.01624   1.91236
   A39        1.89889   0.00207   0.00000   0.01935   0.01924   1.91813
   A40        1.87952  -0.00071   0.00000  -0.00139  -0.00165   1.87787
    D1        0.02654  -0.00019   0.00000  -0.00505  -0.00512   0.02142
    D2       -3.08850   0.00018   0.00000   0.00485   0.00492  -3.08358
    D3        0.54150   0.00062   0.00000   0.00280   0.00293   0.54443
    D4       -1.62620  -0.00055   0.00000   0.01315   0.01292  -1.61329
    D5        2.60825   0.00099   0.00000   0.02090   0.02094   2.62918
    D6       -2.62735   0.00033   0.00000  -0.00705  -0.00688  -2.63423
    D7        1.48813  -0.00085   0.00000   0.00329   0.00311   1.49124
    D8       -0.56060   0.00070   0.00000   0.01105   0.01113  -0.54948
    D9       -3.12303   0.00072   0.00000   0.00758   0.00757  -3.11546
   D10        1.05285   0.00010   0.00000  -0.00248  -0.00247   1.05038
   D11       -1.01363   0.00178   0.00000   0.01453   0.01455  -0.99908
   D12       -0.95471  -0.00142   0.00000  -0.01938  -0.01946  -0.97417
   D13       -3.06200  -0.00204   0.00000  -0.02945  -0.02951  -3.09151
   D14        1.15469  -0.00036   0.00000  -0.01244  -0.01248   1.14221
   D15        1.09468  -0.00068   0.00000  -0.01292  -0.01285   1.08182
   D16       -1.01262  -0.00130   0.00000  -0.02298  -0.02290  -1.03551
   D17       -3.07911   0.00038   0.00000  -0.00597  -0.00587  -3.08498
   D18       -3.12688  -0.00108   0.00000  -0.01455  -0.01452  -3.14140
   D19        1.04753  -0.00140   0.00000  -0.01229  -0.01242   1.03511
   D20       -1.01621  -0.00022   0.00000  -0.00072  -0.00077  -1.01698
   D21        0.96639   0.00130   0.00000   0.01199   0.01208   0.97848
   D22       -1.14239   0.00097   0.00000   0.01424   0.01419  -1.12820
   D23        3.07706   0.00215   0.00000   0.02582   0.02584   3.10290
   D24       -1.08124  -0.00050   0.00000  -0.00718  -0.00704  -1.08828
   D25        3.09317  -0.00082   0.00000  -0.00492  -0.00494   3.08823
   D26        1.02943   0.00036   0.00000   0.00665   0.00671   1.03614
   D27        0.94599  -0.00001   0.00000   0.01328   0.01328   0.95927
   D28        3.06164   0.00062   0.00000   0.01635   0.01634   3.07798
   D29       -1.16900  -0.00033   0.00000   0.00716   0.00716  -1.16184
   D30        3.06405  -0.00059   0.00000   0.00889   0.00878   3.07283
   D31       -1.10348   0.00004   0.00000   0.01196   0.01184  -1.09164
   D32        0.94907  -0.00091   0.00000   0.00277   0.00265   0.95172
   D33       -1.17653   0.00117   0.00000   0.02659   0.02674  -1.14979
   D34        0.93913   0.00180   0.00000   0.02967   0.02980   0.96893
   D35        2.99167   0.00085   0.00000   0.02047   0.02062   3.01229
   D36       -0.93244  -0.00054   0.00000  -0.01085  -0.01083  -0.94327
   D37       -3.04792  -0.00087   0.00000  -0.01931  -0.01931  -3.06723
   D38        1.17986  -0.00050   0.00000  -0.01427  -0.01427   1.16560
   D39       -3.04831  -0.00003   0.00000  -0.00489  -0.00487  -3.05317
   D40        1.11939  -0.00037   0.00000  -0.01336  -0.01334   1.10605
   D41       -0.93601   0.00000   0.00000  -0.00831  -0.00830  -0.94431
   D42        1.18270   0.00018   0.00000  -0.00316  -0.00316   1.17954
   D43       -0.93279  -0.00016   0.00000  -0.01162  -0.01163  -0.94442
   D44       -2.98819   0.00021   0.00000  -0.00658  -0.00659  -2.99478
   D45        0.93697   0.00063   0.00000   0.00635   0.00633   0.94330
   D46        3.05016   0.00008   0.00000   0.00394   0.00393   3.05409
   D47       -1.17825   0.00026   0.00000   0.00515   0.00514  -1.17312
   D48        3.05295   0.00081   0.00000   0.01427   0.01426   3.06721
   D49       -1.11705   0.00025   0.00000   0.01186   0.01186  -1.10519
   D50        0.93772   0.00044   0.00000   0.01306   0.01306   0.95078
   D51       -1.17675   0.00055   0.00000   0.01038   0.01038  -1.16637
   D52        0.93644  -0.00001   0.00000   0.00798   0.00798   0.94442
   D53        2.99121   0.00018   0.00000   0.00918   0.00919   3.00040
   D54       -0.96242   0.00084   0.00000   0.00154   0.00154  -0.96088
   D55        1.15893  -0.00104   0.00000  -0.01994  -0.02008   1.13885
   D56       -3.08271   0.00074   0.00000  -0.00178  -0.00168  -3.08439
   D57       -3.07593   0.00004   0.00000  -0.00588  -0.00585  -3.08178
   D58       -0.95458  -0.00184   0.00000  -0.02736  -0.02747  -0.98205
   D59        1.08697  -0.00006   0.00000  -0.00919  -0.00908   1.07789
   D60        1.15333   0.00090   0.00000   0.00357   0.00357   1.15690
   D61       -3.00850  -0.00098   0.00000  -0.01791  -0.01804  -3.02655
   D62       -0.96696   0.00080   0.00000   0.00025   0.00035  -0.96661
         Item               Value     Threshold  Converged?
 Maximum Force            0.035753     0.000450     NO 
 RMS     Force            0.006188     0.000300     NO 
 Maximum Displacement     0.215015     0.001800     NO 
 RMS     Displacement     0.041663     0.001200     NO 
 Predicted change in Energy=-9.965783D-03
 Lowest energy point so far.  Saving SCF results.
 GradGradGradGradGradGradGradGradGradGradGradGradGradGradGradGradGradGrad

 Leave Link  103 at Mon Feb 22 21:15:54 2021, MaxMem=   104857600 cpu:               1.3 elap:               0.1
 (Enter /sw/arch/RedHatEnterpriseServer7/EB_production/2019/software/Gaussian/g16.c01/l202.exe)
                          Input orientation:                          
 ---------------------------------------------------------------------
 Center     Atomic      Atomic             Coordinates (Angstroms)
 Number     Number       Type             X           Y           Z
 ---------------------------------------------------------------------
      1          8           0        1.225276    0.322889   -0.766075
      2          6           0        0.192092   -0.335232   -0.589398
      3          8           0        0.002666   -1.558405   -1.120212
      4          6           0       -0.951276    0.112243    0.268730
      5          6           0       -1.095301    1.645711    0.272288
      6          6           0       -2.252305    2.086333    1.189241
      7          6           0       -2.097502    1.534436    2.619144
      8          6           0       -1.924012    0.004380    2.618609
      9          6           0       -0.765261   -0.435941    1.706336
     10          1           0        0.798356   -1.816613   -1.622861
     11          1           0       -1.883265   -0.324604   -0.132985
     12          1           0       -1.276919    1.999234   -0.753857
     13          1           0       -0.152351    2.097011    0.615482
     14          1           0       -2.282884    3.185814    1.217929
     15          1           0       -3.210509    1.741475    0.765751
     16          1           0       -2.979288    1.807277    3.219135
     17          1           0       -1.218070    1.998934    3.095434
     18          1           0       -1.726615   -0.350315    3.641525
     19          1           0       -2.858385   -0.471661    2.278051
     20          1           0        0.187740   -0.058606    2.111784
     21          1           0       -0.704541   -1.534774    1.681672
 ---------------------------------------------------------------------
                    Distance matrix (angstroms):
                    1          2          3          4          5
     1  O    0.000000
     2  C    1.237662   0.000000
     3  O    2.271443   1.346773   0.000000
     4  C    2.419209   1.497968   2.372811   0.000000
     5  C    2.865856   2.514760   3.662096   1.540220   0.000000
     6  C    4.361946   3.873320   4.868530   2.537133   1.540653
     7  C    4.895754   4.362641   5.287641   2.976728   2.554314
     8  C    4.634172   3.858049   4.487000   2.545541   2.980932
     9  C    3.263568   2.489390   3.136720   1.549780   2.549254
    10  H    2.343888   1.905280   0.975936   3.218667   4.377809
    11  H    3.237758   2.124978   2.460410   1.104905   2.160388
    12  H    3.011854   2.763109   3.798466   2.170820   1.100426
    13  H    2.637056   2.736088   4.049534   2.167445   1.100276
    14  H    4.943663   4.667944   5.761793   3.481522   2.162524
    15  H    4.902557   4.210324   4.977003   2.829409   2.174116
    16  H    5.980274   5.399344   6.248984   3.961169   3.501346
    17  H    4.867270   4.584198   5.649471   3.408964   2.847805
    18  H    5.347317   4.645683   5.208073   3.491540   3.966666
    19  H    5.155027   4.188829   4.573272   2.831145   3.408052
    20  H    3.082870   2.715312   3.567835   2.173337   2.816848
    21  H    3.628577   2.720406   2.889854   2.184022   3.500649
                    6          7          8          9         10
     6  C    0.000000
     7  C    1.540511   0.000000
     8  C    2.546644   1.539861   0.000000
     9  C    2.973306   2.547640   1.539099   0.000000
    10  H    5.696266   6.132710   5.358860   3.928704   0.000000
    11  H    2.774363   3.328084   2.771491   2.155326   3.411292
    12  H    2.175913   3.502361   3.971360   3.499203   4.429743
    13  H    2.176953   2.848642   3.395645   2.825149   4.607654
    14  H    1.100281   2.173665   3.494598   3.957124   6.525979
    15  H    1.102917   2.171800   2.847044   3.406622   5.868258
    16  H    2.174131   1.100899   2.173632   3.496069   7.130786
    17  H    2.170450   1.102729   2.168862   2.839585   6.394270
    18  H    3.496755   2.176030   1.100513   2.162519   6.019906
    19  H    2.845378   2.172491   1.102565   2.170093   5.513418
    20  H    3.377228   2.831524   2.172633   1.102262   4.172651
    21  H    3.968687   3.498463   2.175765   1.100786   3.641164
                   11         12         13         14         15
    11  H    0.000000
    12  H    2.480597   0.000000
    13  H    3.069280   1.774627   0.000000
    14  H    3.782552   2.511550   2.467308   0.000000
    15  H    2.614954   2.472735   3.082420   1.775125   0.000000
    16  H    4.121030   4.326613   3.854158   2.527879   2.465135
    17  H    4.032865   3.849741   2.701026   2.463237   3.076284
    18  H    3.777846   5.004197   4.198172   4.322900   3.853259
    19  H    2.604915   4.218866   4.084708   3.851258   2.703520
    20  H    3.065747   3.819925   2.645990   4.174831   4.074333
    21  H    2.479291   4.329969   3.825119   4.999018   4.225233
                   16         17         18         19         20
    16  H    0.000000
    17  H    1.775929   0.000000
    18  H    2.530377   2.464915   0.000000
    19  H    2.468565   3.076132   1.776144   0.000000
[...]
                        Self-potential: constant (ISelfS= 1).
                        Self-field    : global E.n sum rule (ISelfD= 3).
 Solvent              : Water, Eps=  78.355300 Eps(inf)=   1.777849
 ------------------------------------------------------------------------------
 One-electron integrals computed using PRISM.
 PrsmSu:  requested number of processors reduced to:  28 ShMem   1 Linda.
 NBasis=   243 RedAO= T EigKep=  1.16D-04  NBF=   243
 NBsUse=   243 1.00D-06 EigRej= -1.00D+00 NBFU=   243
 Initial guess from the checkpoint file:  "NZNMSOFKMUBTKW-UHFFFAOYSA-N.chk"
 B after Tr=     0.000000    0.000000    0.000000
         Rot=    1.000000   -0.000000   -0.000000   -0.000000 Ang=   0.00 deg.
 Requested convergence on RMS density matrix=1.00D-08 within 128 cycles.
 Requested convergence on MAX density matrix=1.00D-06.
 Requested convergence on             energy=1.00D-06.
 No special actions if energy rises.
 Inv3:  Mode=1 IEnd=     5124747.
 Iteration    1 A*A^-1 deviation from unit magnitude is 4.00D-15 for     81.
 Iteration    1 A*A^-1 deviation from orthogonality  is 3.53D-15 for    863     81.
 Iteration    1 A^-1*A deviation from unit magnitude is 6.66D-15 for     81.
 Iteration    1 A^-1*A deviation from orthogonality  is 2.59D-15 for   1300    962.
 Error on nuclear    polarization charges =  0.01717
 Error on electronic polarization charges = -0.04963
 SCF Done:  E(RB-P86) =  -424.607539122     A.U. after   10 cycles
            NFock= 10  Conv=0.36D-08     -V/T= 2.0049
 --------------------------------------------------------------------
 Variational C-PCM results
 =========================
 <psi(f)|   H    |psi(f)>                     (a.u.) =    -424.593758
 <psi(f)|H+V(f)/2|psi(f)>                     (a.u.) =    -424.607539
 Total free energy in solution:
 - with all non electrostatic terms           (a.u.) =    -424.595954
 --------------------------------------------------------------------
 (Polarized solute)-Solvent               (kcal/mol) =      -8.65
 --------------------------------------------------------------------
 Cavitation energy                        (kcal/mol) =      22.63
 Dispersion energy                        (kcal/mol) =     -16.75
 Repulsion energy                         (kcal/mol) =       1.40
 Total non electrostatic                  (kcal/mol) =       7.27
 --------------------------------------------------------------------
 Partition over spheres:
 Sphere  on Atom  Surface  Charge   GEl     GCav    GDR
    1      O1      19.49   0.245   -4.12    2.42   -1.65
    2      C2       8.87  -0.022   -0.10    1.04   -0.48
    3      O3      15.81   0.096   -0.79    1.96   -1.37
    4      C4       2.88  -0.010   -0.06    0.34   -0.04
    5      C5       8.24   0.011   -0.10    0.97   -0.37
    6      C6      10.01   0.017    0.02    1.18   -0.56
    7      C7      10.07   0.019    0.03    1.18   -0.56
    8      C8      10.00   0.014    0.03    1.17   -0.56
    9      C9       8.45   0.001    0.00    0.99   -0.43
   10      H10      8.45  -0.148   -2.48    1.19   -0.92
   11      H11      6.56  -0.032   -0.23    0.93   -0.68
   12      H12      6.55  -0.023   -0.08    0.93   -0.85
   13      H13      6.43  -0.015    0.00    0.91   -0.59
   14      H14      6.56  -0.020   -0.09    0.93   -0.88
   15      H15      6.60  -0.016   -0.10    0.93   -0.76
   16      H16      6.56  -0.019   -0.10    0.93   -0.87
   17      H17      6.60  -0.015   -0.06    0.93   -0.76
   18      H18      6.56  -0.021   -0.12    0.93   -0.88
   19      H19      6.59  -0.017   -0.11    0.93   -0.77
   20      H20      6.59  -0.022   -0.07    0.93   -0.68
   21      H21      6.51  -0.025   -0.12    0.92   -0.73
 --------------------------------------------------------------------
 - cavitation energy not included in the total energy.
 - dispersion energy not included in the total energy.
 - repulsion  energy not included in the total energy.
 After PCM corrections, the energy is  -424.607539122     a.u.
 --------------------------------------------------------------------
 Writing COSMO formatted file "NZNMSOFKMUBTKW-UHFFFAOYSA-N.cosmo"
 Recomputed dielectric energy= -0.013811 old= -0.013781 diff=-3.05D-05

 **********************************************************************

            Population analysis using the SCF Density.

 **********************************************************************

 Orbital symmetries:
       Occupied  (A) (A) (A) (A) (A) (A) (A) (A) (A) (A) (A) (A)
                 (A) (A) (A) (A) (A) (A) (A) (A) (A) (A) (A) (A)
                 (A) (A) (A) (A) (A) (A) (A) (A) (A) (A) (A)
       Virtual   (A) (A) (A) (A) (A) (A) (A) (A) (A) (A) (A) (A)
                 (A) (A) (A) (A) (A) (A) (A) (A) (A) (A) (A) (A)
                 (A) (A) (A) (A) (A) (A) (A) (A) (A) (A) (A) (A)
                 (A) (A) (A) (A) (A) (A) (A) (A) (A) (A) (A) (A)
                 (A) (A) (A) (A) (A) (A) (A) (A) (A) (A) (A) (A)
                 (A) (A) (A) (A) (A) (A) (A) (A) (A) (A) (A) (A)
                 (A) (A) (A) (A) (A) (A) (A) (A) (A) (A) (A) (A)
                 (A) (A) (A) (A) (A) (A) (A) (A) (A) (A) (A) (A)
                 (A) (A) (A) (A) (A) (A) (A) (A) (A) (A) (A) (A)
                 (A) (A) (A) (A) (A) (A) (A) (A) (A) (A) (A) (A)
                 (A) (A) (A) (A) (A) (A) (A) (A) (A) (A) (A) (A)
                 (A) (A) (A) (A) (A) (A) (A) (A) (A) (A) (A) (A)
                 (A) (A) (A) (A) (A) (A) (A) (A) (A) (A) (A) (A)
                 (A) (A) (A) (A) (A) (A) (A) (A) (A) (A) (A) (A)
                 (A) (A) (A) (A) (A) (A) (A) (A) (A) (A) (A) (A)
                 (A) (A) (A) (A) (A) (A) (A) (A) (A) (A) (A) (A)
                 (A) (A) (A) (A) (A) (A) (A) (A) (A) (A) (A) (A)
                 (A) (A) (A) (A)
 The electronic state is 1-A.
 Alpha  occ. eigenvalues --  -18.81917 -18.76905 -10.02933  -9.91481  -9.89941
 Alpha  occ. eigenvalues --   -9.89336  -9.89081  -9.88950  -9.88789  -1.02017
 Alpha  occ. eigenvalues --   -0.93792  -0.76406  -0.69159  -0.67285  -0.59853
 Alpha  occ. eigenvalues --   -0.55077  -0.53056  -0.49494  -0.45487  -0.44167
 Alpha  occ. eigenvalues --   -0.41976  -0.40808  -0.39011  -0.38643  -0.37097
 Alpha  occ. eigenvalues --   -0.34219  -0.33781  -0.33317  -0.30723  -0.30170
 Alpha  occ. eigenvalues --   -0.29195  -0.27986  -0.27377  -0.26553  -0.24328
 Alpha virt. eigenvalues --   -0.04698   0.02108   0.03759   0.04312   0.05648
 Alpha virt. eigenvalues --    0.06553   0.08609   0.09549   0.09599   0.10189
 Alpha virt. eigenvalues --    0.10581   0.10998   0.11422   0.12201   0.14567
 Alpha virt. eigenvalues --    0.16382   0.16841   0.18222   0.18620   0.19108
 Alpha virt. eigenvalues --    0.20666   0.21142   0.21602   0.22601   0.23348
 Alpha virt. eigenvalues --    0.24488   0.25573   0.27420   0.29462   0.30405
 Alpha virt. eigenvalues --    0.31953   0.32899   0.34537   0.35669   0.36692
 Alpha virt. eigenvalues --    0.37639   0.38465   0.38936   0.39108   0.40298
 Alpha virt. eigenvalues --    0.40936   0.41391   0.41527   0.42427   0.42630
 Alpha virt. eigenvalues --    0.42907   0.43083   0.43997   0.45070   0.45259
 Alpha virt. eigenvalues --    0.45777   0.46813   0.48049   0.48265   0.50404
 Alpha virt. eigenvalues --    0.50919   0.52850   0.56409   0.57279   0.58140
 Alpha virt. eigenvalues --    0.60619   0.62926   0.67419   0.69865   0.71619
 Alpha virt. eigenvalues --    0.72506   0.76035   0.77545   0.83393   0.90566
 Alpha virt. eigenvalues --    1.04060   1.05258   1.08357   1.15495   1.17476
 Alpha virt. eigenvalues --    1.22239   1.22578   1.23700   1.24757   1.25101
 Alpha virt. eigenvalues --    1.26435   1.27355   1.28336   1.28802   1.30018
 Alpha virt. eigenvalues --    1.31818   1.33220   1.33752   1.35376   1.37140
 Alpha virt. eigenvalues --    1.38368   1.38892   1.41412   1.41745   1.43471
 Alpha virt. eigenvalues --    1.44950   1.45722   1.47043   1.49373   1.51682
 Alpha virt. eigenvalues --    1.53051   1.54978   1.56366   1.59147   1.60062
 Alpha virt. eigenvalues --    1.62204   1.63999   1.64649   1.65393   1.66334
 Alpha virt. eigenvalues --    1.67294   1.68615   1.73724   1.74174   1.74335
 Alpha virt. eigenvalues --    1.74929   1.75062   1.80300   1.80849   1.83487
 Alpha virt. eigenvalues --    1.85853   1.86176   1.87374   1.89000   1.90673
 Alpha virt. eigenvalues --    1.91662   1.92064   1.93993   1.97443   1.99143
 Alpha virt. eigenvalues --    2.02178   2.05120   2.06224   2.10516   2.14742
 Alpha virt. eigenvalues --    2.22269   2.25277   2.25854   2.27812   2.28082
 Alpha virt. eigenvalues --    2.29876   2.33166   2.34756   2.37865   2.38495
 Alpha virt. eigenvalues --    2.40148   2.43053   2.43850   2.45666   2.48582
 Alpha virt. eigenvalues --    2.49680   2.50875   2.52550   2.53586   2.54305
 Alpha virt. eigenvalues --    2.55922   2.56368   2.57407   2.58079   2.59182
 Alpha virt. eigenvalues --    2.59973   2.61759   2.62944   2.65533   2.66979
 Alpha virt. eigenvalues --    2.67975   2.69683   2.72894   2.79572   2.80814
 Alpha virt. eigenvalues --    2.83619   2.83931   2.85501   2.86625   2.90276
 Alpha virt. eigenvalues --    2.94683   2.98753   2.98972   3.01871   3.09619
 Alpha virt. eigenvalues --    3.11090   3.12501   3.15836   3.19625   3.29376
 Alpha virt. eigenvalues --    3.30489   3.31944   3.32180   3.32643   3.33514
 Alpha virt. eigenvalues --    3.37815   3.38761   3.40267   3.42386   3.44117
 Alpha virt. eigenvalues --    3.46985   3.81249   4.08561   4.18503  21.72952
 Alpha virt. eigenvalues --   21.75235  21.81236  21.83385  21.83738  21.93145
 Alpha virt. eigenvalues --   21.93730  43.09852  43.18897
          Condensed to atoms (all electrons):
               1          2          3          4          5          6
     1  O    7.966393   0.607437  -0.104948  -0.116706   0.002914  -0.000427
     2  C    0.607437   4.956478   0.361749  -0.018371   0.020357   0.004471
     3  O   -0.104948   0.361749   7.868358  -0.137693   0.005645  -0.000615
     4  C   -0.116706  -0.018371  -0.137693   5.917672   0.071302  -0.025386
     5  C    0.002914   0.020357   0.005645   0.071302   5.418449   0.250630
     6  C   -0.000427   0.004471  -0.000615  -0.025386   0.250630   5.164782
     7  C    0.000751  -0.001569   0.000007  -0.011644  -0.065235   0.295809
     8  C   -0.001430   0.003631  -0.000785  -0.066248  -0.009491  -0.078258
     9  C   -0.021347  -0.065213  -0.018103   0.269199  -0.032523  -0.023830
    10  H    0.002472  -0.020326   0.283924   0.017026  -0.001177   0.000081
    11  H    0.004787  -0.026120   0.009786   0.397975  -0.055335  -0.000837
    12  H    0.000190  -0.001813  -0.000017  -0.040967   0.400489  -0.028680
    13  H    0.013846  -0.024128   0.000847  -0.013388   0.376950  -0.035827
    14  H    0.000022  -0.000666   0.000009   0.013036  -0.039301   0.396439
    15  H    0.000011  -0.001483   0.000003  -0.007042  -0.051404   0.422702
    16  H   -0.000002   0.000123  -0.000001  -0.001193   0.013135  -0.036022
    17  H   -0.000086  -0.000480   0.000002  -0.004641  -0.005637  -0.046813
    18  H    0.000012  -0.000203  -0.000006   0.015088  -0.003104   0.013357
    19  H    0.000001  -0.000841   0.000074  -0.008082  -0.005402  -0.002040
    20  H    0.006405   0.001520   0.000874  -0.046672  -0.016329  -0.000881
    21  H    0.000184  -0.000454   0.008196  -0.040380   0.015412  -0.002390
               7          8          9         10         11         12
     1  O    0.000751  -0.001430  -0.021347   0.002472   0.004787   0.000190
     2  C   -0.001569   0.003631  -0.065213  -0.020326  -0.026120  -0.001813
     3  O    0.000007  -0.000785  -0.018103   0.283924   0.009786  -0.000017
     4  C   -0.011644  -0.066248   0.269199   0.017026   0.397975  -0.040967
     5  C   -0.065235  -0.009491  -0.032523  -0.001177  -0.055335   0.400489
     6  C    0.295809  -0.078258  -0.023830   0.000081  -0.000837  -0.028680
     7  C    5.189978   0.295665  -0.071093  -0.000021  -0.004870   0.011304
     8  C    0.295665   5.170254   0.287165   0.000152  -0.007495  -0.001770
     9  C   -0.071093   0.287165   5.281417   0.000739  -0.036615   0.010692
    10  H   -0.000021   0.000152   0.000739   0.390661  -0.000446  -0.000038
    11  H   -0.004870  -0.007495  -0.036615  -0.000446   0.514228  -0.002474
    12  H    0.011304  -0.001770   0.010692  -0.000038  -0.002474   0.525493
    13  H   -0.007377  -0.001524  -0.010568  -0.000020   0.008612  -0.020157
    14  H   -0.031469   0.013428  -0.002287  -0.000001  -0.000055  -0.003451
    15  H   -0.053966  -0.003137  -0.003857   0.000000   0.006003  -0.004438
    16  H    0.393862  -0.035635   0.013426   0.000000  -0.000080  -0.000368
    17  H    0.407819  -0.046236  -0.004552   0.000000   0.000494  -0.000191
    18  H   -0.029497   0.392031  -0.038462  -0.000004   0.000178   0.000074
    19  H   -0.054473   0.416138  -0.045202  -0.000001   0.006349   0.000001
    20  H   -0.007419  -0.049489   0.413161  -0.000139   0.008434  -0.000113
    21  H    0.010676  -0.021438   0.381503  -0.000421  -0.003099  -0.000391
              13         14         15         16         17         18
     1  O    0.013846   0.000022   0.000011  -0.000002  -0.000086   0.000012
     2  C   -0.024128  -0.000666  -0.001483   0.000123  -0.000480  -0.000203
     3  O    0.000847   0.000009   0.000003  -0.000001   0.000002  -0.000006
     4  C   -0.013388   0.013036  -0.007042  -0.001193  -0.004641   0.015088
     5  C    0.376950  -0.039301  -0.051404   0.013135  -0.005637  -0.003104
     6  C   -0.035827   0.396439   0.422702  -0.036022  -0.046813   0.013357
     7  C   -0.007377  -0.031469  -0.053966   0.393862   0.407819  -0.029497
     8  C   -0.001524   0.013428  -0.003137  -0.035635  -0.046236   0.392031
     9  C   -0.010568  -0.002287  -0.003857   0.013426  -0.004552  -0.038462
    10  H   -0.000020  -0.000001   0.000000   0.000000   0.000000  -0.000004
    11  H    0.008612  -0.000055   0.006003  -0.000080   0.000494   0.000178
    12  H   -0.020157  -0.003451  -0.004438  -0.000368  -0.000191   0.000074
    13  H    0.558160  -0.004315   0.008341  -0.000141   0.006118   0.000106
    14  H   -0.004315   0.538509  -0.023580  -0.003213  -0.004653  -0.000403
    15  H    0.008341  -0.023580   0.565699  -0.003460   0.009080  -0.000250
    16  H   -0.000141  -0.003213  -0.003460   0.539650  -0.022331  -0.002760
    17  H    0.006118  -0.004653   0.009080  -0.022331   0.573635  -0.004953
    18  H    0.000106  -0.000403  -0.000250  -0.002760  -0.004953   0.534458
    19  H    0.000500  -0.000227   0.006227  -0.003576   0.009116  -0.022151
    20  H    0.007408   0.000085   0.000402  -0.000195   0.005799  -0.003613
    21  H   -0.000415   0.000086  -0.000016  -0.000393  -0.000165  -0.004145
              19         20         21
     1  O    0.000001   0.006405   0.000184
     2  C   -0.000841   0.001520  -0.000454
     3  O    0.000074   0.000874   0.008196
     4  C   -0.008082  -0.046672  -0.040380
     5  C   -0.005402  -0.016329   0.015412
     6  C   -0.002040  -0.000881  -0.002390
     7  C   -0.054473  -0.007419   0.010676
     8  C    0.416138  -0.049489  -0.021438
     9  C   -0.045202   0.413161   0.381503
    10  H   -0.000001  -0.000139  -0.000421
    11  H    0.006349   0.008434  -0.003099
    12  H    0.000001  -0.000113  -0.000391
    13  H    0.000500   0.007408  -0.000415
    14  H   -0.000227   0.000085   0.000086
    15  H    0.006227   0.000402  -0.000016
    16  H   -0.003576  -0.000195  -0.000393
    17  H    0.009116   0.005799  -0.000165
    18  H   -0.022151  -0.003613  -0.004145
    19  H    0.565765   0.008383  -0.004564
    20  H    0.008383   0.546263  -0.019101
    21  H   -0.004564  -0.019101   0.522729
 Mulliken charges:
               1
     1  O   -0.360479
     2  C    0.205902
     3  O   -0.277306
     4  C   -0.162885
     5  C   -0.290346
     6  C   -0.266264
     7  C   -0.267239
     8  C   -0.255527
     9  C   -0.283650
    10  H    0.327539
    11  H    0.180580
    12  H    0.156623
    13  H    0.136972
    14  H    0.152008
    15  H    0.134164
    16  H    0.149175
    17  H    0.128674
    18  H    0.154248
    19  H    0.134005
    20  H    0.145217
    21  H    0.158588
 Sum of Mulliken charges =  -0.00000
 Mulliken charges with hydrogens summed into heavy atoms:
               1
     1  O   -0.360479
     2  C    0.205902
     3  O    0.050233
     4  C    0.017696
     5  C    0.003249
     6  C    0.019908
     7  C    0.010610
     8  C    0.032727
     9  C    0.020155
 Electronic spatial extent (au):  <R**2>=           1355.9923
 Charge=             -0.0000 electrons
 Dipole moment (field-independent basis, Debye):
    X=              1.1147    Y=              1.6309    Z=             -1.4617  Tot=              2.4575
 Quadrupole moment (field-independent basis, Debye-Ang):
   XX=            -51.5328   YY=            -57.4504   ZZ=            -57.9358
   XY=             -4.4608   XZ=              3.2831   YZ=              3.3085
 Traceless Quadrupole moment (field-independent basis, Debye-Ang):
   XX=              4.1069   YY=             -1.8108   ZZ=             -2.2961
   XY=             -4.4608   XZ=              3.2831   YZ=              3.3085
 Octapole moment (field-independent basis, Debye-Ang**2):
  XXX=            -49.1436  YYY=              2.1443  ZZZ=             -1.8577  XYY=             -0.2005
  XXY=             15.7426  XXZ=             -9.6089  XZZ=              1.7637  YZZ=              1.6925
  YYZ=             -1.2717  XYZ=             -7.2281
 Hexadecapole moment (field-independent basis, Debye-Ang**3):
 XXXX=          -1013.4384 YYYY=           -410.4540 ZZZZ=           -173.2521 XXXY=            -57.0896
 XXXZ=             28.8687 YYYX=             -7.5531 YYYZ=              1.7818 ZZZX=              3.4441
 ZZZY=             -1.6117 XXYY=           -274.2300 XXZZ=           -246.3772 YYZZ=           -100.3983
 XXYZ=             14.2366 YYXZ=              6.2564 ZZXY=             -1.9896
 N-N= 4.718196479335D+02 E-N=-1.934184297478D+03  KE= 4.225569254652D+02
 Unable to Open any file for archive entry.
 1\1\GINC-TCN1745\SP\RBP86\TZVP\C7H12O2\ELENAA\22-Feb-2021\0\\# BP86/TZ
 VP SCRF=COSMORS geom=CHECKPOINT guess=CHECKPOINT\\COSMO-file for #NZNM
 SOFKMUBTKW-UHFFFAOYSA-N\\0,1\O,0,1.2134875458,0.3205956863,-0.82368258
 22\C,0,0.1995287497,-0.3239570436,-0.5978845429\O,0,0.0176125553,-1.58
 9679381,-1.0773413377\C,0,-0.9645083345,0.1235550752,0.259937675\C,0,-
 1.1066241627,1.6544766309,0.281876681\C,0,-2.2611880798,2.0869865963,1
 .1987328794\C,0,-2.0829351677,1.5365544761,2.6225679298\C,0,-1.9289222
 73,0.007778092,2.609373089\C,0,-0.774604508,-0.4344725982,1.6971572773
 \H,0,0.8288051926,-1.8363301948,-1.572245005\H,0,-1.8815243961,-0.3272
 105066,-0.1570994523\H,0,-1.2615070564,2.0306559123,-0.7419477011\H,0,
 -0.1598845315,2.0910554628,0.6423809291\H,0,-2.3298263223,3.1865212629
 ,1.2168920655\H,0,-3.2158343855,1.7169646701,0.7824212703\H,0,-2.93621
 51918,1.8282738983,3.2560132842\H,0,-1.1809201868,1.9873582759,3.07509
 22752\H,0,-1.7584921283,-0.3727091432,3.6294737201\H,0,-2.8679293031,-
 0.4511109758,2.2507029458\H,0,0.1813248612,-0.0531347333,2.0977890533\
 H,0,-0.7021984461,-1.5325876467,1.6655134322\\Version=ES64L-G16RevC.01
 \State=1-A\HF=-424.6075391\RMSD=3.623e-09\Dipole=-0.766439,-0.4942612,
 0.3210258\Quadrupole=-2.9849274,1.5762932,1.4086342,-3.9420061,0.77966
 73,2.6825243\PG=C01 [X(C7H12O2)]\\@
 The archive entry for this job was punched.


 LAWS OF PROGRAMMING DEFINITION:  A WORKING PROGRAM
                                  IS ONE THAT HAS
                                  ONLY UNOBSERVED
                                  BUGS.
 Job cpu time:       0 days  0 hours  5 minutes 37.8 seconds.
 Elapsed time:       0 days  0 hours  0 minutes 11.1 seconds.
 File lengths (MBytes):  RWF=     51 Int=      0 D2E=      0 Chk=      8 Scr=      1
 Normal termination of Gaussian 16 at Mon Feb 22 21:18:21 2021.
