 Entering Gaussian System, Link 0=g16
 Input=ODKSFYDXXFIFQN-BYPYZUCNSA-N.gjf
 Output=ODKSFYDXXFIFQN-BYPYZUCNSA-N.log
 Initial command:
 /sw/arch/RedHatEnterpriseServer7/EB_production/2019/software/Gaussian/g16.c01/l1.exe "/scratch-local/elenaa.9715250/Gau-22222.inp" -scrdir="/scratch-local/elenaa.9715250/"
 Entering Link 1 = /sw/arch/RedHatEnterpriseServer7/EB_production/2019/software/Gaussian/g16.c01/l1.exe PID=     22223.
  
 Copyright (c) 1988-2019, Gaussian, Inc.  All Rights Reserved.
  
 This is part of the Gaussian(R) 16 program.  It is based on
 the Gaussian(R) 09 system (copyright 2009, Gaussian, Inc.),
 the Gaussian(R) 03 system (copyright 2003, Gaussian, Inc.),
 the Gaussian(R) 98 system (copyright 1998, Gaussian, Inc.),
 the Gaussian(R) 94 system (copyright 1995, Gaussian, Inc.),
 the Gaussian 92(TM) system (copyright 1992, Gaussian, Inc.),
 the Gaussian 90(TM) system (copyright 1990, Gaussian, Inc.),
 the Gaussian 88(TM) system (copyright 1988, Gaussian, Inc.),
 the Gaussian 86(TM) system (copyright 1986, Carnegie Mellon
 University), and the Gaussian 82(TM) system (copyright 1983,
 Carnegie Mellon University). Gaussian is a federally registered
 trademark of Gaussian, Inc.
  
 This software contains proprietary and confidential information,
 including trade secrets, belonging to Gaussian, Inc.
  
 This software is provided under written license and may be
 used, copied, transmitted, or stored only in accord with that
 written license.
  
 The following legend is applicable only to US Government
 contracts under FAR:
  
                    RESTRICTED RIGHTS LEGEND
  
 Use, reproduction and disclosure by the US Government is
 subject to restrictions as set forth in subparagraphs (a)
 and (c) of the Commercial Computer Software - Restricted
 Rights clause in FAR 52.227-19.
  
 Gaussian, Inc.
 340 Quinnipiac St., Bldg. 40, Wallingford CT 06492
  
  
 ---------------------------------------------------------------
 Warning -- This program may not be used in any manner that
 competes with the business of Gaussian, Inc. or will provide
 assistance to any competitor of Gaussian, Inc.  The licensee
 of this program is prohibited from giving any competitor of
 Gaussian, Inc. access to this program.  By using this program,
 the user acknowledges that Gaussian, Inc. is engaged in the
 business of creating and licensing software in the field of
 computational chemistry and represents and warrants to the
 licensee that it is not a competitor of Gaussian, Inc. and that
 it will not use this program in any manner prohibited above.
 ---------------------------------------------------------------
  

 Cite this work as:
 Gaussian 16, Revision C.01,
 M. J. Frisch, G. W. Trucks, H. B. Schlegel, G. E. Scuseria, 
 M. A. Robb, J. R. Cheeseman, G. Scalmani, V. Barone, 
 G. A. Petersson, H. Nakatsuji, X. Li, M. Caricato, A. V. Marenich, 
 J. Bloino, B. G. Janesko, R. Gomperts, B. Mennucci, H. P. Hratchian, 
 J. V. Ortiz, A. F. Izmaylov, J. L. Sonnenberg, D. Williams-Young, 
 F. Ding, F. Lipparini, F. Egidi, J. Goings, B. Peng, A. Petrone, 
 T. Henderson, D. Ranasinghe, V. G. Zakrzewski, J. Gao, N. Rega, 
 G. Zheng, W. Liang, M. Hada, M. Ehara, K. Toyota, R. Fukuda, 
 J. Hasegawa, M. Ishida, T. Nakajima, Y. Honda, O. Kitao, H. Nakai, 
 T. Vreven, K. Throssell, J. A. Montgomery, Jr., J. E. Peralta, 
 F. Ogliaro, M. J. Bearpark, J. J. Heyd, E. N. Brothers, K. N. Kudin, 
 V. N. Staroverov, T. A. Keith, R. Kobayashi, J. Normand, 
 K. Raghavachari, A. P. Rendell, J. C. Burant, S. S. Iyengar, 
 J. Tomasi, M. Cossi, J. M. Millam, M. Klene, C. Adamo, R. Cammi, 
 J. W. Ochterski, R. L. Martin, K. Morokuma, O. Farkas, 
 J. B. Foresman, and D. J. Fox, Gaussian, Inc., Wallingford CT, 2019.
 
 ******************************************
 Gaussian 16:  ES64L-G16RevC.01  3-Jul-2019
                22-Feb-2021 
 ******************************************
 %chk=ODKSFYDXXFIFQN-BYPYZUCNSA-N.chk
 %NProcShared=32
 Will use up to   32 processors via shared memory.
 -------------------------------------------------------------
 #P BP86/TZVP EmpiricalDispersion=GD3 SCRF=(Solvent=Water) Opt
 -------------------------------------------------------------
 1/18=20,19=15,26=3,38=1/1,3;
 2/9=110,12=2,17=6,18=5,40=1/2;
 3/5=19,7=101,11=2,25=1,30=1,70=2201,71=1,72=1,74=404,124=31/1,2,3;
 4//1;
 5/5=2,38=5,53=1/2;
 6/7=2,8=2,9=2,10=2,28=1/1;
 7//1,2,3,16;
 1/18=20,19=15,26=3/3(2);
 2/9=110/2;
 99//99;
 2/9=110/2;
 3/5=19,7=101,11=2,25=1,30=1,70=2205,71=1,72=1,74=404,124=31/1,2,3;
 4/5=5,16=3,69=1/1;
 5/5=2,38=5,53=1/2;
 7//1,2,3,16;
 1/18=20,19=15,26=3/3(-5);
 2/9=110/2;
 6/7=2,8=2,9=2,10=2,19=2,28=1/1;
 99/9=1/99;
 Leave Link    1 at Mon Feb 22 21:16:07 2021, MaxMem=           0 cpu:               3.0 elap:               0.1
 (Enter /sw/arch/RedHatEnterpriseServer7/EB_production/2019/software/Gaussian/g16.c01/l101.exe)
 -------------------------------------
 Particle #ODKSFYDXXFIFQN-BYPYZUCNSA-N
 -------------------------------------
 Symbolic Z-matrix:
 Charge =  0 Multiplicity = 1
 N                    -5.0096   -1.82131   2.68823 
 C                    -5.13052  -0.62319   3.22306 
 N                    -6.16276  -0.37751   3.93258 
 N                    -4.23607   0.34628   3.06608 
 C                    -2.97187   0.22813   2.41185 
 C                    -2.31402   1.62348   2.27347 
 C                    -0.80871   1.55506   1.89833 
 C                    -0.21311   2.93457   1.50385 
 N                     1.19789   2.77281   1.13037 
 C                    -0.32054   3.94665   2.5763 
 O                    -0.9476    5.01335   2.38931 
 O                     0.24494   3.73731   3.78703 
 H                    -5.70393  -2.48554   2.82313 
 H                    -4.23148  -2.0408    2.1531 
 H                    -6.27431   0.46441   4.32534 
 H                    -6.80713  -1.04144   4.06575 
 H                    -4.4451    1.20493   3.46473 
 H                    -3.09705  -0.20481   1.41454 
 H                    -2.33165  -0.43093   3.00274 
 H                    -2.85391   2.18458   1.50601 
 H                    -2.41339   2.16496   3.21786 
 H                    -0.68781   0.87382   1.05007 
 H                    -0.24687   1.13807   2.74008 
 H                    -0.73866   3.29001   0.61279 
 H                     1.54833   3.69685   0.86958 
 H                     1.70638   2.48297   1.96876 
 
 ITRead=  0  0  0  0  0  0  0  0  0  0  0  0  0  0  0  0  0  0  0  0
 ITRead=  0  0  0  0  0  0
 MicOpt= -1 -1 -1 -1 -1 -1 -1 -1 -1 -1 -1 -1 -1 -1 -1 -1 -1 -1 -1 -1
 MicOpt= -1 -1 -1 -1 -1 -1
 NAtoms=     26 NQM=       26 NQMF=       0 NMMI=      0 NMMIF=      0
                NMic=       0 NMicF=      0.
                    Isotopes and Nuclear Properties:
 (Nuclear quadrupole moments (NQMom) in fm**2, nuclear magnetic moments (NMagM)
  in nuclear magnetons)

  Atom         1           2           3           4           5           6           7           8           9          10
 IAtWgt=          14          12          14          14          12          12          12          12          14          12
 AtmWgt=  14.0030740  12.0000000  14.0030740  14.0030740  12.0000000  12.0000000  12.0000000  12.0000000  14.0030740  12.0000000
 NucSpn=           2           0           2           2           0           0           0           0           2           0
 AtZEff=  -0.0000000  -0.0000000  -0.0000000  -0.0000000  -0.0000000  -0.0000000  -0.0000000  -0.0000000  -0.0000000  -0.0000000
 NQMom=    2.0440000   0.0000000   2.0440000   2.0440000   0.0000000   0.0000000   0.0000000   0.0000000   2.0440000   0.0000000
 NMagM=    0.4037610   0.0000000   0.4037610   0.4037610   0.0000000   0.0000000   0.0000000   0.0000000   0.4037610   0.0000000
 AtZNuc=   7.0000000   6.0000000   7.0000000   7.0000000   6.0000000   6.0000000   6.0000000   6.0000000   7.0000000   6.0000000

  Atom        11          12          13          14          15          16          17          18          19          20
 IAtWgt=          16          16           1           1           1           1           1           1           1           1
 AtmWgt=  15.9949146  15.9949146   1.0078250   1.0078250   1.0078250   1.0078250   1.0078250   1.0078250   1.0078250   1.0078250
 NucSpn=           0           0           1           1           1           1           1           1           1           1
 AtZEff=  -0.0000000  -0.0000000  -0.0000000  -0.0000000  -0.0000000  -0.0000000  -0.0000000  -0.0000000  -0.0000000  -0.0000000
 NQMom=    0.0000000   0.0000000   0.0000000   0.0000000   0.0000000   0.0000000   0.0000000   0.0000000   0.0000000   0.0000000
 NMagM=    0.0000000   0.0000000   2.7928460   2.7928460   2.7928460   2.7928460   2.7928460   2.7928460   2.7928460   2.7928460
 AtZNuc=   8.0000000   8.0000000   1.0000000   1.0000000   1.0000000   1.0000000   1.0000000   1.0000000   1.0000000   1.0000000

  Atom        21          22          23          24          25          26
 IAtWgt=           1           1           1           1           1           1
 AtmWgt=   1.0078250   1.0078250   1.0078250   1.0078250   1.0078250   1.0078250
 NucSpn=           1           1           1           1           1           1
 AtZEff=  -0.0000000  -0.0000000  -0.0000000  -0.0000000  -0.0000000  -0.0000000
 NQMom=    0.0000000   0.0000000   0.0000000   0.0000000   0.0000000   0.0000000
 NMagM=    2.7928460   2.7928460   2.7928460   2.7928460   2.7928460   2.7928460
 AtZNuc=   1.0000000   1.0000000   1.0000000   1.0000000   1.0000000   1.0000000
 Leave Link  101 at Mon Feb 22 21:16:07 2021, MaxMem=   104857600 cpu:               2.5 elap:               0.1
 (Enter /sw/arch/RedHatEnterpriseServer7/EB_production/2019/software/Gaussian/g16.c01/l103.exe)

 GradGradGradGradGradGradGradGradGradGradGradGradGradGradGradGradGradGrad
 Berny optimization.
 Initialization pass.
                           ----------------------------
                           !    Initial Parameters    !
                           ! (Angstroms and Degrees)  !
 --------------------------                            --------------------------
 ! Name  Definition              Value          Derivative Info.                !
 --------------------------------------------------------------------------------
 ! R1    R(1,2)                  1.3176         estimate D2E/DX2                !
 ! R2    R(1,13)                 0.9703         estimate D2E/DX2                !
 ! R3    R(1,14)                 0.9695         estimate D2E/DX2                !
 ! R4    R(2,3)                  1.2764         estimate D2E/DX2                !
 ! R5    R(2,4)                  1.3284         estimate D2E/DX2                !
 ! R6    R(3,15)                 0.9357         estimate D2E/DX2                !
 ! R7    R(3,16)                 0.9347         estimate D2E/DX2                !
 ! R8    R(4,5)                  1.4283         estimate D2E/DX2                !
 ! R9    R(4,17)                 0.9695         estimate D2E/DX2                !
 ! R10   R(5,6)                  1.5488         estimate D2E/DX2                !
 ! R11   R(5,18)                 1.0944         estimate D2E/DX2                !
 ! R12   R(5,19)                 1.0924         estimate D2E/DX2                !
 ! R13   R(6,7)                  1.5529         estimate D2E/DX2                !
 ! R14   R(6,20)                 1.0933         estimate D2E/DX2                !
 ! R15   R(6,21)                 1.0931         estimate D2E/DX2                !
 ! R16   R(7,8)                  1.5535         estimate D2E/DX2                !
 ! R17   R(7,22)                 1.0946         estimate D2E/DX2                !
 ! R18   R(7,23)                 1.0946         estimate D2E/DX2                !
 ! R19   R(8,9)                  1.4685         estimate D2E/DX2                !
 ! R20   R(8,10)                 1.4785         estimate D2E/DX2                !
 ! R21   R(8,24)                 1.0939         estimate D2E/DX2                !
 ! R22   R(9,25)                 1.0221         estimate D2E/DX2                !
 ! R23   R(9,26)                 1.0225         estimate D2E/DX2                !
 ! R24   R(10,11)                1.2514         estimate D2E/DX2                !
 ! R25   R(10,12)                1.3526         estimate D2E/DX2                !
 ! A1    A(2,1,13)             120.0242         estimate D2E/DX2                !
 ! A2    A(2,1,14)             120.2343         estimate D2E/DX2                !
 ! A3    A(13,1,14)            119.7397         estimate D2E/DX2                !
 ! A4    A(1,2,3)              118.3498         estimate D2E/DX2                !
 ! A5    A(1,2,4)              123.6325         estimate D2E/DX2                !
 ! A6    A(3,2,4)              118.0177         estimate D2E/DX2                !
 ! A7    A(2,3,15)             120.1929         estimate D2E/DX2                !
 ! A8    A(2,3,16)             119.9969         estimate D2E/DX2                !
 ! A9    A(15,3,16)            119.809          estimate D2E/DX2                !
 ! A10   A(2,4,5)              126.1374         estimate D2E/DX2                !
 ! A11   A(2,4,17)             116.9115         estimate D2E/DX2                !
 ! A12   A(5,4,17)             116.9001         estimate D2E/DX2                !
 ! A13   A(4,5,6)              110.0187         estimate D2E/DX2                !
 ! A14   A(4,5,18)             110.4188         estimate D2E/DX2                !
 ! A15   A(4,5,19)             108.7149         estimate D2E/DX2                !
 ! A16   A(6,5,18)             108.8779         estimate D2E/DX2                !
 ! A17   A(6,5,19)             110.0548         estimate D2E/DX2                !
 ! A18   A(18,5,19)            108.7403         estimate D2E/DX2                !
 ! A19   A(5,6,7)              113.18           estimate D2E/DX2                !
 ! A20   A(5,6,20)             108.3807         estimate D2E/DX2                !
 ! A21   A(5,6,21)             109.2966         estimate D2E/DX2                !
 ! A22   A(7,6,20)             109.3736         estimate D2E/DX2                !
 ! A23   A(7,6,21)             108.5815         estimate D2E/DX2                !
 ! A24   A(20,6,21)            107.8989         estimate D2E/DX2                !
 ! A25   A(6,7,8)              113.1954         estimate D2E/DX2                !
 ! A26   A(6,7,22)             108.7652         estimate D2E/DX2                !
 ! A27   A(6,7,23)             109.1829         estimate D2E/DX2                !
 ! A28   A(8,7,22)             108.2712         estimate D2E/DX2                !
 ! A29   A(8,7,23)             109.6805         estimate D2E/DX2                !
 ! A30   A(22,7,23)            107.5868         estimate D2E/DX2                !
 ! A31   A(7,8,9)              109.5808         estimate D2E/DX2                !
 ! A32   A(7,8,10)             113.3165         estimate D2E/DX2                !
 ! A33   A(7,8,24)             108.1312         estimate D2E/DX2                !
 ! A34   A(9,8,10)             109.25           estimate D2E/DX2                !
 ! A35   A(9,8,24)             106.8732         estimate D2E/DX2                !
 ! A36   A(10,8,24)            109.4836         estimate D2E/DX2                !
 ! A37   A(8,9,25)             107.142          estimate D2E/DX2                !
 ! A38   A(8,9,26)             107.4888         estimate D2E/DX2                !
 ! A39   A(25,9,26)            107.1562         estimate D2E/DX2                !
 ! A40   A(8,10,11)            120.7647         estimate D2E/DX2                !
 ! A41   A(8,10,12)            120.8616         estimate D2E/DX2                !
 ! A42   A(11,10,12)           118.3706         estimate D2E/DX2                !
 ! D1    D(13,1,2,3)             1.2195         estimate D2E/DX2                !
 ! D2    D(13,1,2,4)          -178.8264         estimate D2E/DX2                !
 ! D3    D(14,1,2,3)          -179.2768         estimate D2E/DX2                !
 ! D4    D(14,1,2,4)             0.6773         estimate D2E/DX2                !
 ! D5    D(1,2,3,15)           179.936          estimate D2E/DX2                !
 ! D6    D(1,2,3,16)             0.3449         estimate D2E/DX2                !
 ! D7    D(4,2,3,15)            -0.0208         estimate D2E/DX2                !
 ! D8    D(4,2,3,16)          -179.6118         estimate D2E/DX2                !
 ! D9    D(1,2,4,5)             -5.7949         estimate D2E/DX2                !
 ! D10   D(1,2,4,17)           176.8965         estimate D2E/DX2                !
 ! D11   D(3,2,4,5)            174.1593         estimate D2E/DX2                !
 ! D12   D(3,2,4,17)            -3.1493         estimate D2E/DX2                !
 ! D13   D(2,4,5,6)            172.4139         estimate D2E/DX2                !
 ! D14   D(2,4,5,18)            52.2099         estimate D2E/DX2                !
 ! D15   D(2,4,5,19)           -67.004          estimate D2E/DX2                !
 ! D16   D(17,4,5,6)           -10.2772         estimate D2E/DX2                !
 ! D17   D(17,4,5,18)         -130.4812         estimate D2E/DX2                !
 ! D18   D(17,4,5,19)          110.3049         estimate D2E/DX2                !
 ! D19   D(4,5,6,7)            165.8505         estimate D2E/DX2                !
 ! D20   D(4,5,6,20)           -72.647          estimate D2E/DX2                !
 ! D21   D(4,5,6,21)            44.7066         estimate D2E/DX2                !
 ! D22   D(18,5,6,7)           -73.0178         estimate D2E/DX2                !
 ! D23   D(18,5,6,20)           48.4848         estimate D2E/DX2                !
 ! D24   D(18,5,6,21)          165.8383         estimate D2E/DX2                !
 ! D25   D(19,5,6,7)            46.0793         estimate D2E/DX2                !
 ! D26   D(19,5,6,20)          167.5818         estimate D2E/DX2                !
 ! D27   D(19,5,6,21)          -75.0647         estimate D2E/DX2                !
 ! D28   D(5,6,7,8)            169.3769         estimate D2E/DX2                !
 ! D29   D(5,6,7,22)            48.9911         estimate D2E/DX2                !
 ! D30   D(5,6,7,23)           -68.1428         estimate D2E/DX2                !
 ! D31   D(20,6,7,8)            48.4344         estimate D2E/DX2                !
 ! D32   D(20,6,7,22)          -71.9514         estimate D2E/DX2                !
 ! D33   D(20,6,7,23)          170.9147         estimate D2E/DX2                !
 ! D34   D(21,6,7,8)           -69.0764         estimate D2E/DX2                !
 ! D35   D(21,6,7,22)          170.5379         estimate D2E/DX2                !
 ! D36   D(21,6,7,23)           53.404          estimate D2E/DX2                !
 ! D37   D(6,7,8,9)           -178.4608         estimate D2E/DX2                !
 ! D38   D(6,7,8,10)            59.2387         estimate D2E/DX2                !
 ! D39   D(6,7,8,24)           -62.3158         estimate D2E/DX2                !
 ! D40   D(22,7,8,9)           -57.7945         estimate D2E/DX2                !
 ! D41   D(22,7,8,10)          179.9051         estimate D2E/DX2                !
 ! D42   D(22,7,8,24)           58.3505         estimate D2E/DX2                !
 ! D43   D(23,7,8,9)            59.3362         estimate D2E/DX2                !
 ! D44   D(23,7,8,10)          -62.9643         estimate D2E/DX2                !
 ! D45   D(23,7,8,24)          175.4811         estimate D2E/DX2                !
 ! D46   D(7,8,9,25)           179.4254         estimate D2E/DX2                !
 ! D47   D(7,8,9,26)           -65.6871         estimate D2E/DX2                !
 ! D48   D(10,8,9,25)          -55.8799         estimate D2E/DX2                !
 ! D49   D(10,8,9,26)           59.0075         estimate D2E/DX2                !
 ! D50   D(24,8,9,25)           62.4862         estimate D2E/DX2                !
 ! D51   D(24,8,9,26)          177.3737         estimate D2E/DX2                !
 ! D52   D(7,8,10,11)         -120.483          estimate D2E/DX2                !
 ! D53   D(7,8,10,12)           58.8746         estimate D2E/DX2                !
 ! D54   D(9,8,10,11)          117.0327         estimate D2E/DX2                !
 ! D55   D(9,8,10,12)          -63.6097         estimate D2E/DX2                !
 ! D56   D(24,8,10,11)           0.3102         estimate D2E/DX2                !
 ! D57   D(24,8,10,12)         179.6678         estimate D2E/DX2                !
 --------------------------------------------------------------------------------
 Trust Radius=3.00D-01 FncErr=1.00D-07 GrdErr=1.00D-06 EigMax=2.50D+02 EigMin=1.00D-04
 Number of steps in this run=    134 maximum allowed number of steps=    156.
 GradGradGradGradGradGradGradGradGradGradGradGradGradGradGradGradGradGrad

 Leave Link  103 at Mon Feb 22 21:16:08 2021, MaxMem=   104857600 cpu:               0.9 elap:               0.1
 (Enter /sw/arch/RedHatEnterpriseServer7/EB_production/2019/software/Gaussian/g16.c01/l202.exe)
                          Input orientation:                          
 ---------------------------------------------------------------------
 Center     Atomic      Atomic             Coordinates (Angstroms)
 Number     Number       Type             X           Y           Z
 ---------------------------------------------------------------------
      1          7           0       -5.009600   -1.821310    2.688230
      2          6           0       -5.130520   -0.623190    3.223060
      3          7           0       -6.162760   -0.377510    3.932580
      4          7           0       -4.236070    0.346280    3.066080
      5          6           0       -2.971870    0.228130    2.411850
      6          6           0       -2.314020    1.623480    2.273470
      7          6           0       -0.808710    1.555060    1.898330
      8          6           0       -0.213110    2.934570    1.503850
      9          7           0        1.197890    2.772810    1.130370
     10          6           0       -0.320540    3.946650    2.576300
     11          8           0       -0.947600    5.013350    2.389310
     12          8           0        0.244940    3.737310    3.787030
     13          1           0       -5.703930   -2.485540    2.823130
     14          1           0       -4.231480   -2.040800    2.153100
     15          1           0       -6.274310    0.464410    4.325340
     16          1           0       -6.807130   -1.041440    4.065750
     17          1           0       -4.445100    1.204930    3.464730
     18          1           0       -3.097050   -0.204810    1.414540
     19          1           0       -2.331650   -0.430930    3.002740
     20          1           0       -2.853910    2.184580    1.506010
     21          1           0       -2.413390    2.164960    3.217860
     22          1           0       -0.687810    0.873820    1.050070
     23          1           0       -0.246870    1.138070    2.740080
     24          1           0       -0.738660    3.290010    0.612790
     25          1           0        1.548330    3.696850    0.869580
     26          1           0        1.706380    2.482970    1.968760
 ---------------------------------------------------------------------
                    Distance matrix (angstroms):
                    1          2          3          4          5
     1  N    0.000000
     2  C    1.317633   0.000000
     3  N    2.227722   1.276439   0.000000
     4  N    2.332288   1.328366   2.233121   0.000000
     5  C    2.903263   2.458165   3.586251   1.428348   0.000000
     6  C    4.393718   3.725845   4.644288   2.440030   1.548844
     7  C    5.447136   5.017741   6.044737   3.817275   2.589152
     8  C    6.857658   6.308269   7.229588   5.032297   3.969891
     9  N    7.878185   7.480705   8.482692   6.258030   5.050197
    10  C    7.434324   6.666157   7.393875   5.341715   4.569900
    11  O    7.956241   7.068419   7.657738   5.749226   5.195816
    12  O    7.727600   6.944609   7.616531   5.665537   4.955132
    13  H    0.970306   1.989244   2.425942   3.198881   3.872636
    14  H    0.969541   1.990655   3.108525   2.555720   2.607990
    15  H    3.082878   1.925136   0.935699   2.398773   3.824053
    16  H    2.395177   1.922519   0.934746   3.087953   4.365365
    17  H    3.174861   1.967289   2.381881   0.969482   2.057450
    18  H    2.809485   2.753323   3.971011   2.080541   1.094410
    19  H    3.033725   2.814103   3.942697   2.057883   1.092425
    20  H    4.700191   4.001848   4.837462   2.779124   2.159203
    21  H    4.786561   3.893148   4.586148   2.579302   2.170913
    22  H    5.350249   5.167262   6.312667   4.114942   2.736474
    23  H    5.607514   5.213957   6.222282   4.080064   2.891600
    24  H    6.976673   6.435455   7.341156   5.188069   4.195111
    25  H    8.761508   8.295098   9.243554   7.036350   5.902781
    26  H    8.009298   7.613455   8.600134   6.409545   5.212164
                    6          7          8          9         10
     6  C    0.000000
     7  C    1.552858   0.000000
     8  C    2.593279   1.553513   0.000000
     9  N    3.867964   2.469640   1.468528   0.000000
    10  C    3.076164   2.533309   1.478511   2.402966   0.000000
    11  O    3.656739   3.495729   2.375887   3.347847   1.251407
    12  O    3.647933   3.072390   2.463151   2.982653   1.352575
    13  H    5.355153   6.414428   7.827336   8.840294   8.391358
    14  H    4.137401   4.970963   6.428307   7.327679   7.164085
    15  H    4.608417   6.078871   7.127457   8.448095   7.115653
    16  H    5.522871   6.886259   8.114991   9.340519   8.317172
    17  H    2.477052   3.974863   4.974580   6.304825   5.031732
    18  H    2.166458   2.927063   4.263894   5.233878   5.127701
    19  H    2.180079   2.735548   4.249879   5.121267   4.836282
    20  H    1.093302   2.175558   2.745235   4.111472   3.266248
    21  H    1.093137   2.165210   2.893331   4.215263   2.822417
    22  H    2.168699   1.094646   2.162856   2.677401   3.450587
    23  H    2.174042   1.094572   2.181013   2.711249   2.814316
    24  H    2.831420   2.160456   1.093859   2.070172   2.112196
    25  H    4.602990   3.346824   2.021396   1.022091   2.543220
    26  H    4.122522   2.681726   2.025963   1.022481   2.572911
                   11         12         13         14         15
    11  O    0.000000
    12  O    2.236974   0.000000
    13  H    8.890682   8.662680   0.000000
    14  H    7.784645   7.489634   1.677749   0.000000
    15  H    7.267387   7.314525   3.359192   3.894593   0.000000
    16  H    8.590985   8.523252   2.201495   3.360197   1.618292
    17  H    5.281392   5.339785   3.951692   3.507245   2.152912
    18  H    5.727085   5.686644   3.739208   2.281066   4.360687
    19  H    5.650847   4.962676   3.952968   2.631145   4.253877
    20  H    3.523660   4.149325   5.627383   4.491131   4.754655
    21  H    3.308831   3.140535   5.710571   4.703996   4.361775
    22  H    4.358528   4.069465   6.292098   4.719034   6.488759
    23  H    3.953714   2.845001   6.551103   5.130972   6.268724
    24  H    2.483864   3.353110   7.930731   6.556667   7.239507
    25  H    3.205061   3.195618   9.727979   8.244650   9.142464
    26  H    3.690975   2.648638   8.962630   7.467038   8.562679
                   16         17         18         19         20
    16  H    0.000000
    17  H    3.314602   0.000000
    18  H    4.636115   2.829821   0.000000
    19  H    4.640327   2.712221   1.777455   0.000000
    20  H    5.708539   2.707062   2.403470   3.058406   0.000000
    21  H    5.504986   2.260630   3.055350   2.606070   1.767731
    22  H    7.085804   4.478554   2.664717   2.866619   2.572540
    23  H    7.038798   4.260836   3.418173   2.622415   3.068350
    24  H    8.216491   5.120431   4.291687   4.700518   2.548352
    25  H   10.123271   6.990399   6.090935   6.053361   4.698055
    26  H    9.449798   6.458484   5.532112   5.085825   4.593410
                   21         22         23         24         25
    21  H    0.000000
    22  H    3.056793   0.000000
    23  H    2.444706   1.766463   0.000000
    24  H    3.294973   2.455967   3.065627   0.000000
    25  H    4.853487   3.605884   3.642646   2.337046   0.000000
    26  H    4.316699   3.027458   2.493767   2.910015   1.645199
                   26
    26  H    0.000000
 Stoichiometry    C6H14N4O2
 Framework group  C1[X(C6H14N4O2)]
 Deg. of freedom    72
 Full point group                 C1      NOp   1
 Largest Abelian subgroup         C1      NOp   1
 Largest concise Abelian subgroup C1      NOp   1
                         Standard orientation:                         
 ---------------------------------------------------------------------
 Center     Atomic      Atomic             Coordinates (Angstroms)
 Number     Number       Type             X           Y           Z
 ---------------------------------------------------------------------
      1          7           0       -4.234399   -1.009558    0.073502
      2          6           0       -3.656822    0.173293    0.014989
      3          7           0       -4.398984    1.211672    0.031154
      4          7           0       -2.341976    0.347161   -0.059215
      5          6           0       -1.350559   -0.677322    0.028569
      6          6           0        0.046710   -0.092005   -0.293861
      7          6           0        1.212545   -1.033998    0.112156
      8          6           0        2.590190   -0.575977   -0.440759
      9          7           0        3.625151   -1.538590   -0.042253
     10          6           0        2.982023    0.776094    0.011307
     11          8           0        3.196709    1.690377   -0.815745
     12          8           0        3.104727    1.058912    1.328280
     13          1           0       -5.201743   -1.076263    0.109425
     14          1           0       -3.696354   -1.816105    0.073614
     15          1           0       -4.015989    2.064485   -0.008320
     16          1           0       -5.327616    1.121529    0.088317
     17          1           0       -2.024056    1.259061   -0.144416
     18          1           0       -1.569423   -1.482172   -0.679986
     19          1           0       -1.360041   -1.088470    1.040626
     20          1           0        0.097939    0.106380   -1.367792
     21          1           0        0.169318    0.859668    0.229811
     22          1           0        1.004751   -2.037504   -0.272613
     23          1           0        1.257265   -1.101043    1.203757
     24          1           0        2.542075   -0.595675   -1.533383
     25          1           0        4.510272   -1.207837   -0.431911
     26          1           0        3.709043   -1.495671    0.975876
 ---------------------------------------------------------------------
 Rotational constants (GHZ):           2.1114531           0.3014615           0.2786755
 Leave Link  202 at Mon Feb 22 21:16:08 2021, MaxMem=   104857600 cpu:               0.7 elap:               0.1
 (Enter /sw/arch/RedHatEnterpriseServer7/EB_production/2019/software/Gaussian/g16.c01/l301.exe)
 Standard basis: TZVP (5D, 7F)
 Ernie: Thresh=  0.10000D-02 Tol=  0.10000D-05 Strict=F.
 There are   324 symmetry adapted cartesian basis functions of A   symmetry.
 There are   312 symmetry adapted basis functions of A   symmetry.
   312 basis functions,   532 primitive gaussians,   324 cartesian basis functions
    47 alpha electrons       47 beta electrons
       nuclear repulsion energy       709.2035612589 Hartrees.
 IExCor=  404 DFT=T Ex=B Corr=P86 ExCW=0 ScaHFX=  0.000000
 ScaDFX=  1.000000  1.000000  1.000000  1.000000 ScalE2=  1.000000  1.000000
 IRadAn=      5 IRanWt=     -1 IRanGd=            0 ICorTp=0 IEmpDi=131
 NAtoms=   26 NActive=   26 NUniq=   26 SFac= 1.00D+00 NAtFMM=   60 NAOKFM=F Big=F
 Integral buffers will be    131072 words long.
 Raffenetti 2 integral format.
 Two-electron integral symmetry is turned on.
 R6Disp:  Grimme-D3 Dispersion energy=       -0.0247524147 Hartrees.
 Nuclear repulsion after empirical dispersion term =      709.1788088443 Hartrees.
 ------------------------------------------------------------------------------
 Polarizable Continuum Model (PCM)
 =================================
 Model                : PCM.
 Atomic radii         : UFF (Universal Force Field).
 Polarization charges : Total charges.
 Charge compensation  : None.
 Solution method      : On-the-fly selection.
 Cavity type          : Scaled VdW (van der Waals Surface) (Alpha=1.100).
 Cavity algorithm     : GePol (No added spheres)
                        Default sphere list used, NSphG=   26.
                        Lebedev-Laikov grids with approx.  5.0 points / Ang**2.
                        Smoothing algorithm: York/Karplus (Gamma=1.0000).
                        Polarization charges: spherical gaussians, with
                                              point-specific exponents (IZeta= 3).
                        Self-potential: point-specific (ISelfS= 7).
                        Self-field    : sphere-specific E.n sum rule (ISelfD= 2).
 1st derivatives      : Analytical E(r).r(x)/FMM algorithm (CHGder, D1EAlg=3).
                        Cavity 1st derivative terms included.
 Solvent              : Water, Eps=  78.355300 Eps(inf)=   1.777849
 ------------------------------------------------------------------------------
 GePol: Number of generator spheres                  =      26
 GePol: Total number of spheres                      =      26
 GePol: Number of exposed spheres                    =      26 (100.00%)
 GePol: Number of points                             =    1966
 GePol: Average weight of points                     =       0.13
 GePol: Minimum weight of points                     =   0.18D-09
 GePol: Maximum weight of points                     =    0.20577
 GePol: Number of points with low weight             =     115
 GePol: Fraction of low-weight points (<1% of avg)   =       5.85%
 GePol: Cavity surface area                          =    260.826 Ang**2
 GePol: Cavity volume                                =    258.972 Ang**3
 Leave Link  301 at Mon Feb 22 21:16:08 2021, MaxMem=   104857600 cpu:               2.0 elap:               0.1
 (Enter /sw/arch/RedHatEnterpriseServer7/EB_production/2019/software/Gaussian/g16.c01/l302.exe)
 NPDir=0 NMtPBC=     1 NCelOv=     1 NCel=       1 NClECP=     1 NCelD=      1
         NCelK=      1 NCelE2=     1 NClLst=     1 CellRange=     0.0.
 One-electron integrals computed using PRISM.
 One-electron integral symmetry used in STVInt
 PrsmSu:  requested number of processors reduced to:  28 ShMem   1 Linda.
 NBasis=   312 RedAO= T EigKep=  1.03D-04  NBF=   312
 NBsUse=   312 1.00D-06 EigRej= -1.00D+00 NBFU=   312
 Precomputing XC quadrature grid using
 IXCGrd= 4 IRadAn=           5 IRanWt=          -1 IRanGd=           0 AccXCQ= 0.00D+00.
 Generated NRdTot=       0 NPtTot=           0 NUsed=           0 NTot=          32
 NSgBfM=   318   318   318   318   318 MxSgAt=    26 MxSgA2=    26.
 Leave Link  302 at Mon Feb 22 21:16:08 2021, MaxMem=   104857600 cpu:               8.2 elap:               0.3
 (Enter /sw/arch/RedHatEnterpriseServer7/EB_production/2019/software/Gaussian/g16.c01/l303.exe)
 DipDrv:  MaxL=1.
 Leave Link  303 at Mon Feb 22 21:16:09 2021, MaxMem=   104857600 cpu:               1.5 elap:               0.1
 (Enter /sw/arch/RedHatEnterpriseServer7/EB_production/2019/software/Gaussian/g16.c01/l401.exe)
 ExpMin= 9.52D-02 ExpMax= 2.70D+04 ExpMxC= 9.22D+02 IAcc=3 IRadAn=         5 AccDes= 0.00D+00
 Harris functional with IExCor=  404 and IRadAn=       5 diagonalized for initial guess.
 HarFok:  IExCor=  404 AccDes= 0.00D+00 IRadAn=         5 IDoV= 1 UseB2=F ITyADJ=14
 ICtDFT=  3500011 ScaDFX=  1.000000  1.000000  1.000000  1.000000
 FoFCou: FMM=F IPFlag=           0 FMFlag=      100000 FMFlg1=           0
         NFxFlg=           0 DoJE=T BraDBF=F KetDBF=T FulRan=T
         wScrn=  0.000000 ICntrl=       500 IOpCl=  0 I1Cent=   200000004 NGrid=           0
         NMat0=    1 NMatS0=      1 NMatT0=    0 NMatD0=    1 NMtDS0=    0 NMtDT0=    0
 Petite list used in FoFCou.
 Harris En= -607.002960822575    
 JPrj=0 DoOrth=F DoCkMO=F.
 Leave Link  401 at Mon Feb 22 21:16:09 2021, MaxMem=   104857600 cpu:              15.7 elap:               0.5
 (Enter /sw/arch/RedHatEnterpriseServer7/EB_production/2019/software/Gaussian/g16.c01/l502.exe)
 Integral symmetry usage will be decided dynamically.
 Closed shell SCF:
 Using DIIS extrapolation, IDIIS=  1040.
 NGot=   104857600 LenX=   104633290 LenY=   104527873
 Requested convergence on RMS density matrix=1.00D-08 within 128 cycles.
 Requested convergence on MAX density matrix=1.00D-06.
 Requested convergence on             energy=1.00D-06.
 No special actions if energy rises.
 Fock matrices will be formed incrementally for  20 cycles.

 Cycle   1  Pass 1  IDiag  1:
 FoFJK:  IHMeth= 1 ICntrl=     500 DoSepK=F KAlg= 0 I1Cent=           0 FoldK=F
 IRaf= 830000000 NMat=       1 IRICut=       1 DoRegI=T DoRafI=F ISym2E= 0 IDoP0=0 IntGTp=1.
 FoFCou: FMM=F IPFlag=           0 FMFlag=      100000 FMFlg1=           0
         NFxFlg=           0 DoJE=T BraDBF=F KetDBF=F FulRan=T
         wScrn=  0.000000 ICntrl=       500 IOpCl=  0 I1Cent=           0 NGrid=           0
         NMat0=    1 NMatS0=      1 NMatT0=    0 NMatD0=    1 NMtDS0=    0 NMtDT0=    0
 Symmetry not used in FoFCou.
 Inv3:  Mode=1 IEnd=    11595468.
 Iteration    1 A*A^-1 deviation from unit magnitude is 3.00D-15 for   1121.
 Iteration    1 A*A^-1 deviation from orthogonality  is 1.64D-15 for   1354    912.
 Iteration    1 A^-1*A deviation from unit magnitude is 2.89D-15 for    970.
 Iteration    1 A^-1*A deviation from orthogonality  is 2.48D-15 for   1844   1829.
 E= -606.387834895570    
 DIIS: error= 4.21D-02 at cycle   1 NSaved=   1.
 NSaved= 1 IEnMin= 1 EnMin= -606.387834895570     IErMin= 1 ErrMin= 4.21D-02
 ErrMax= 4.21D-02  0.00D+00 EMaxC= 1.00D-01 BMatC= 4.81D-01 BMatP= 4.81D-01
 IDIUse=3 WtCom= 5.79D-01 WtEn= 4.21D-01
 Coeff-Com:  0.100D+01
 Coeff-En:   0.100D+01
 Coeff:      0.100D+01
 Gap=     0.284 Goal=   None    Shift=    0.000
 GapD=    0.284 DampG=1.000 DampE=0.500 DampFc=0.5000 IDamp=-1.
 Damping current iteration by 5.00D-01
 RMSDP=2.70D-02 MaxDP=4.82D+00              OVMax= 9.83D-01

 Cycle   2  Pass 1  IDiag  1:
 RMSU=  1.35D-02    CP:  1.06D+00
 E= -606.058764053129     Delta-E=        0.329070842441 Rises=F Damp=T
 DIIS: error= 2.86D-02 at cycle   2 NSaved=   2.
 NSaved= 2 IEnMin= 1 EnMin= -606.387834895570     IErMin= 2 ErrMin= 2.86D-02
 ErrMax= 2.86D-02  0.00D+00 EMaxC= 1.00D-01 BMatC= 2.62D-01 BMatP= 4.81D-01
 IDIUse=3 WtCom= 7.14D-01 WtEn= 2.86D-01
 Coeff-Com:  0.405D+00 0.595D+00
 Coeff-En:   0.691D+00 0.309D+00
 Coeff:      0.487D+00 0.513D+00
 Gap=    -0.255 Goal=   None    Shift=    0.000
 RMSDP=1.12D-02 MaxDP=2.04D+00 DE= 3.29D-01 OVMax= 6.96D-01

 Cycle   3  Pass 1  IDiag  1:
 RMSU=  2.84D-03    CP:  1.00D+00  1.96D-01
 E= -606.562219309052     Delta-E=       -0.503455255923 Rises=F Damp=F
 DIIS: error= 3.76D-02 at cycle   3 NSaved=   3.
 NSaved= 3 IEnMin= 3 EnMin= -606.562219309052     IErMin= 2 ErrMin= 2.86D-02
 ErrMax= 3.76D-02  0.00D+00 EMaxC= 1.00D-01 BMatC= 2.40D-01 BMatP= 2.62D-01
 IDIUse=3 WtCom= 6.24D-01 WtEn= 3.76D-01
 EnCoef did     2 forward-backward iterations
 Coeff-Com:  0.257D+00 0.404D+00 0.339D+00
 Coeff-En:   0.272D+00 0.878D-01 0.640D+00
 Coeff:      0.263D+00 0.285D+00 0.452D+00
 Gap=     0.252 Goal=   None    Shift=    0.000
 RMSDP=2.72D-03 MaxDP=1.21D-01 DE=-5.03D-01 OVMax= 2.06D-01

 Cycle   4  Pass 1  IDiag  1:
 RMSU=  2.26D-03    CP:  1.01D+00  2.53D-01  5.48D-01
 E= -606.735333803147     Delta-E=       -0.173114494096 Rises=F Damp=F
 DIIS: error= 1.88D-02 at cycle   4 NSaved=   4.
 NSaved= 4 IEnMin= 4 EnMin= -606.735333803147     IErMin= 4 ErrMin= 1.88D-02
 ErrMax= 1.88D-02  0.00D+00 EMaxC= 1.00D-01 BMatC= 5.85D-02 BMatP= 2.40D-01
 IDIUse=3 WtCom= 8.12D-01 WtEn= 1.88D-01
 Coeff-Com:  0.155D+00 0.191D+00 0.290D+00 0.364D+00
 Coeff-En:   0.000D+00 0.000D+00 0.165D+00 0.835D+00
 Coeff:      0.126D+00 0.155D+00 0.266D+00 0.453D+00
 Gap=     0.169 Goal=   None    Shift=    0.000
 RMSDP=1.80D-03 MaxDP=6.83D-02 DE=-1.73D-01 OVMax= 1.69D-01

 Cycle   5  Pass 1  IDiag  1:
 RMSU=  1.15D-03    CP:  1.01D+00  2.54D-01  7.50D-01  4.44D-01
 E= -606.747616080101     Delta-E=       -0.012282276953 Rises=F Damp=F
 DIIS: error= 1.63D-02 at cycle   5 NSaved=   5.
 NSaved= 5 IEnMin= 5 EnMin= -606.747616080101     IErMin= 5 ErrMin= 1.63D-02
 ErrMax= 1.63D-02  0.00D+00 EMaxC= 1.00D-01 BMatC= 4.04D-02 BMatP= 5.85D-02
 IDIUse=3 WtCom= 8.37D-01 WtEn= 1.63D-01
 Coeff-Com:  0.179D-01 0.351D-01 0.924D-01 0.436D+00 0.419D+00
 Coeff-En:   0.000D+00 0.000D+00 0.000D+00 0.443D+00 0.557D+00
 Coeff:      0.150D-01 0.294D-01 0.774D-01 0.437D+00 0.441D+00
 Gap=     0.143 Goal=   None    Shift=    0.000
 RMSDP=9.55D-04 MaxDP=4.94D-02 DE=-1.23D-02 OVMax= 8.34D-02

 Cycle   6  Pass 1  IDiag  1:
 RMSU=  3.33D-04    CP:  1.01D+00  2.66D-01  7.03D-01  7.35D-01  5.02D-01
 E= -606.777756575540     Delta-E=       -0.030140495440 Rises=F Damp=F
 DIIS: error= 1.51D-03 at cycle   6 NSaved=   6.
 NSaved= 6 IEnMin= 6 EnMin= -606.777756575540     IErMin= 6 ErrMin= 1.51D-03
 ErrMax= 1.51D-03  0.00D+00 EMaxC= 1.00D-01 BMatC= 1.10D-03 BMatP= 4.04D-02
 IDIUse=3 WtCom= 9.85D-01 WtEn= 1.51D-02
 Coeff-Com:  0.138D-03 0.140D-01 0.250D-01 0.223D+00 0.259D+00 0.479D+00
 Coeff-En:   0.000D+00 0.000D+00 0.000D+00 0.000D+00 0.000D+00 0.100D+01
 Coeff:      0.136D-03 0.138D-01 0.247D-01 0.219D+00 0.255D+00 0.487D+00
 Gap=     0.134 Goal=   None    Shift=    0.000
 RMSDP=2.32D-04 MaxDP=1.60D-02 DE=-3.01D-02 OVMax= 9.39D-03

 Cycle   7  Pass 1  IDiag  1:
 RMSU=  1.09D-04    CP:  1.01D+00  2.69D-01  6.88D-01  7.36D-01  5.70D-01
                    CP:  4.67D-01
 E= -606.778431635337     Delta-E=       -0.000675059796 Rises=F Damp=F
 DIIS: error= 8.67D-04 at cycle   7 NSaved=   7.
 NSaved= 7 IEnMin= 7 EnMin= -606.778431635337     IErMin= 7 ErrMin= 8.67D-04
 ErrMax= 8.67D-04  0.00D+00 EMaxC= 1.00D-01 BMatC= 2.14D-04 BMatP= 1.10D-03
 IDIUse=3 WtCom= 9.91D-01 WtEn= 8.67D-03
 Coeff-Com: -0.307D-02 0.507D-03-0.699D-02 0.302D-01 0.521D-01 0.337D+00
 Coeff-Com:  0.591D+00
 Coeff-En:   0.000D+00 0.000D+00 0.000D+00 0.000D+00 0.000D+00 0.212D+00
 Coeff-En:   0.788D+00
 Coeff:     -0.304D-02 0.503D-03-0.693D-02 0.300D-01 0.516D-01 0.335D+00
 Coeff:      0.592D+00
 Gap=     0.132 Goal=   None    Shift=    0.000
 RMSDP=8.64D-05 MaxDP=7.40D-03 DE=-6.75D-04 OVMax= 2.91D-03

 Cycle   8  Pass 1  IDiag  1:
 RMSU=  2.44D-05    CP:  1.01D+00  2.73D-01  6.94D-01  7.46D-01  5.67D-01
                    CP:  6.19D-01  6.96D-01
 E= -606.778605247702     Delta-E=       -0.000173612365 Rises=F Damp=F
 DIIS: error= 1.11D-04 at cycle   8 NSaved=   8.
 NSaved= 8 IEnMin= 8 EnMin= -606.778605247702     IErMin= 8 ErrMin= 1.11D-04
 ErrMax= 1.11D-04  0.00D+00 EMaxC= 1.00D-01 BMatC= 3.83D-06 BMatP= 2.14D-04
 IDIUse=3 WtCom= 9.99D-01 WtEn= 1.11D-03
 Coeff-Com: -0.678D-03 0.384D-03-0.265D-02 0.289D-02 0.123D-01 0.112D+00
 Coeff-Com:  0.230D+00 0.646D+00
 Coeff-En:   0.000D+00 0.000D+00 0.000D+00 0.000D+00 0.000D+00 0.000D+00
 Coeff-En:   0.000D+00 0.100D+01
 Coeff:     -0.677D-03 0.384D-03-0.264D-02 0.289D-02 0.123D-01 0.111D+00
 Coeff:      0.230D+00 0.646D+00
 Gap=     0.133 Goal=   None    Shift=    0.000
 RMSDP=1.46D-05 MaxDP=2.04D-03 DE=-1.74D-04 OVMax= 4.35D-04

 Cycle   9  Pass 1  IDiag  1:
 RMSU=  6.84D-06    CP:  1.01D+00  2.72D-01  6.93D-01  7.43D-01  5.65D-01
                    CP:  6.16D-01  7.16D-01  8.01D-01
 E= -606.778607654272     Delta-E=       -0.000002406570 Rises=F Damp=F
 DIIS: error= 5.35D-05 at cycle   9 NSaved=   9.
 NSaved= 9 IEnMin= 9 EnMin= -606.778607654272     IErMin= 9 ErrMin= 5.35D-05
 ErrMax= 5.35D-05  0.00D+00 EMaxC= 1.00D-01 BMatC= 9.84D-07 BMatP= 3.83D-06
 IDIUse=1 WtCom= 1.00D+00 WtEn= 0.00D+00
 Coeff-Com: -0.990D-04 0.641D-04-0.917D-03-0.154D-02 0.227D-02 0.310D-01
 Coeff-Com:  0.748D-01 0.401D+00 0.494D+00
 Coeff:     -0.990D-04 0.641D-04-0.917D-03-0.154D-02 0.227D-02 0.310D-01
 Coeff:      0.748D-01 0.401D+00 0.494D+00
 Gap=     0.133 Goal=   None    Shift=    0.000
 RMSDP=5.11D-06 MaxDP=6.34D-04 DE=-2.41D-06 OVMax= 2.60D-04

 Cycle  10  Pass 1  IDiag  1:
 RMSU=  2.14D-06    CP:  1.01D+00  2.72D-01  6.93D-01  7.44D-01  5.66D-01
                    CP:  6.18D-01  7.15D-01  8.31D-01  5.80D-01
 E= -606.778608478930     Delta-E=       -0.000000824659 Rises=F Damp=F
 DIIS: error= 1.77D-05 at cycle  10 NSaved=  10.
 NSaved=10 IEnMin=10 EnMin= -606.778608478930     IErMin=10 ErrMin= 1.77D-05
 ErrMax= 1.77D-05  0.00D+00 EMaxC= 1.00D-01 BMatC= 4.10D-08 BMatP= 9.84D-07
 IDIUse=1 WtCom= 1.00D+00 WtEn= 0.00D+00
 Coeff-Com: -0.292D-04 0.292D-04-0.356D-03-0.827D-03 0.804D-03 0.109D-01
 Coeff-Com:  0.277D-01 0.179D+00 0.262D+00 0.520D+00
 Coeff:     -0.292D-04 0.292D-04-0.356D-03-0.827D-03 0.804D-03 0.109D-01
 Coeff:      0.277D-01 0.179D+00 0.262D+00 0.520D+00
 Gap=     0.133 Goal=   None    Shift=    0.000
 RMSDP=1.12D-06 MaxDP=1.27D-04 DE=-8.25D-07 OVMax= 1.07D-04

 Cycle  11  Pass 1  IDiag  1:
 RMSU=  5.89D-07    CP:  1.01D+00  2.72D-01  6.93D-01  7.44D-01  5.66D-01
                    CP:  6.18D-01  7.17D-01  8.43D-01  6.03D-01  7.85D-01
 E= -606.778608486653     Delta-E=       -0.000000007723 Rises=F Damp=F
 DIIS: error= 9.78D-06 at cycle  11 NSaved=  11.
 NSaved=11 IEnMin=11 EnMin= -606.778608486653     IErMin=11 ErrMin= 9.78D-06
 ErrMax= 9.78D-06  0.00D+00 EMaxC= 1.00D-01 BMatC= 9.75D-09 BMatP= 4.10D-08
 IDIUse=1 WtCom= 1.00D+00 WtEn= 0.00D+00
 Coeff-Com: -0.904D-05 0.749D-05-0.764D-04-0.270D-03 0.894D-04 0.138D-02
 Coeff-Com:  0.431D-02 0.440D-01 0.795D-01 0.343D+00 0.528D+00
 Coeff:     -0.904D-05 0.749D-05-0.764D-04-0.270D-03 0.894D-04 0.138D-02
 Coeff:      0.431D-02 0.440D-01 0.795D-01 0.343D+00 0.528D+00
 Gap=     0.133 Goal=   None    Shift=    0.000
 RMSDP=3.37D-07 MaxDP=1.15D-05 DE=-7.72D-09 OVMax= 3.89D-05

 Cycle  12  Pass 1  IDiag  1:
 RMSU=  1.74D-07    CP:  1.01D+00  2.72D-01  6.93D-01  7.44D-01  5.67D-01
                    CP:  6.18D-01  7.17D-01  8.45D-01  6.09D-01  7.80D-01
                    CP:  6.29D-01
 E= -606.778608497905     Delta-E=       -0.000000011252 Rises=F Damp=F
 DIIS: error= 1.08D-06 at cycle  12 NSaved=  12.
 NSaved=12 IEnMin=12 EnMin= -606.778608497905     IErMin=12 ErrMin= 1.08D-06
 ErrMax= 1.08D-06  0.00D+00 EMaxC= 1.00D-01 BMatC= 3.05D-10 BMatP= 9.75D-09
 IDIUse=1 WtCom= 1.00D+00 WtEn= 0.00D+00
 Coeff-Com: -0.475D-05-0.104D-05-0.185D-04-0.728D-04-0.197D-04 0.416D-04
 Coeff-Com:  0.425D-03 0.102D-01 0.219D-01 0.129D+00 0.240D+00 0.599D+00
 Coeff:     -0.475D-05-0.104D-05-0.185D-04-0.728D-04-0.197D-04 0.416D-04
 Coeff:      0.425D-03 0.102D-01 0.219D-01 0.129D+00 0.240D+00 0.599D+00
 Gap=     0.133 Goal=   None    Shift=    0.000
 RMSDP=1.41D-07 MaxDP=1.30D-05 DE=-1.13D-08 OVMax= 5.01D-06

 Cycle  13  Pass 1  IDiag  1:
 RMSU=  4.94D-08    CP:  1.01D+00  2.72D-01  6.93D-01  7.44D-01  5.67D-01
                    CP:  6.18D-01  7.17D-01  8.45D-01  6.06D-01  8.06D-01
                    CP:  6.54D-01  7.16D-01
 E= -606.778608495231     Delta-E=        0.000000002675 Rises=F Damp=F
 DIIS: error= 4.11D-07 at cycle  13 NSaved=  13.
 NSaved=13 IEnMin=12 EnMin= -606.778608497905     IErMin=13 ErrMin= 4.11D-07
 ErrMax= 4.11D-07  0.00D+00 EMaxC= 1.00D-01 BMatC= 6.23D-11 BMatP= 3.05D-10
 IDIUse=1 WtCom= 1.00D+00 WtEn= 0.00D+00
 Coeff-Com: -0.157D-05 0.407D-06-0.313D-05-0.182D-04-0.188D-04-0.728D-04
 Coeff-Com: -0.724D-04 0.270D-02 0.693D-02 0.511D-01 0.104D+00 0.381D+00
 Coeff-Com:  0.454D+00
 Coeff:     -0.157D-05 0.407D-06-0.313D-05-0.182D-04-0.188D-04-0.728D-04
 Coeff:     -0.724D-04 0.270D-02 0.693D-02 0.511D-01 0.104D+00 0.381D+00
 Coeff:      0.454D+00
 Gap=     0.133 Goal=   None    Shift=    0.000
 RMSDP=3.43D-08 MaxDP=2.18D-06 DE= 2.67D-09 OVMax= 1.48D-06

 Cycle  14  Pass 1  IDiag  1:
 RMSU=  1.55D-08    CP:  1.01D+00  2.72D-01  6.93D-01  7.44D-01  5.66D-01
                    CP:  6.18D-01  7.17D-01  8.45D-01  6.08D-01  8.06D-01
                    CP:  6.56D-01  7.27D-01  6.64D-01
 E= -606.778608498172     Delta-E=       -0.000000002942 Rises=F Damp=F
 DIIS: error= 3.98D-08 at cycle  14 NSaved=  14.
 NSaved=14 IEnMin=14 EnMin= -606.778608498172     IErMin=14 ErrMin= 3.98D-08
 ErrMax= 3.98D-08  0.00D+00 EMaxC= 1.00D-01 BMatC= 1.13D-12 BMatP= 6.23D-11
 IDIUse=1 WtCom= 1.00D+00 WtEn= 0.00D+00
 Coeff-Com: -0.250D-06-0.892D-07 0.684D-06-0.305D-06-0.705D-05-0.308D-04
 Coeff-Com: -0.631D-04 0.996D-05 0.476D-03 0.627D-02 0.143D-01 0.774D-01
 Coeff-Com:  0.159D+00 0.743D+00
 Coeff:     -0.250D-06-0.892D-07 0.684D-06-0.305D-06-0.705D-05-0.308D-04
 Coeff:     -0.631D-04 0.996D-05 0.476D-03 0.627D-02 0.143D-01 0.774D-01
 Coeff:      0.159D+00 0.743D+00
 Gap=     0.133 Goal=   None    Shift=    0.000
 RMSDP=8.11D-09 MaxDP=3.60D-07 DE=-2.94D-09 OVMax= 2.79D-07

 Error on total polarization charges =  0.01336
 SCF Done:  E(RB-P86) =  -606.778608498     A.U. after   14 cycles
            NFock= 14  Conv=0.81D-08     -V/T= 2.0031
 KE= 6.049332405390D+02 PE=-2.837012092724D+03 EE= 9.161214348430D+02
 Leave Link  502 at Mon Feb 22 21:16:30 2021, MaxMem=   104857600 cpu:             651.6 elap:              20.8
 (Enter /sw/arch/RedHatEnterpriseServer7/EB_production/2019/software/Gaussian/g16.c01/l601.exe)
 Copying SCF densities to generalized density rwf, IOpCl= 0 IROHF=0.

 **********************************************************************

            Population analysis using the SCF Density.

 **********************************************************************

 Orbital symmetries:
       Occupied  (A) (A) (A) (A) (A) (A) (A) (A) (A) (A) (A) (A)
                 (A) (A) (A) (A) (A) (A) (A) (A) (A) (A) (A) (A)
                 (A) (A) (A) (A) (A) (A) (A) (A) (A) (A) (A) (A)
                 (A) (A) (A) (A) (A) (A) (A) (A) (A) (A) (A)
       Virtual   (A) (A) (A) (A) (A) (A) (A) (A) (A) (A) (A) (A)
                 (A) (A) (A) (A) (A) (A) (A) (A) (A) (A) (A) (A)
                 (A) (A) (A) (A) (A) (A) (A) (A) (A) (A) (A) (A)
                 (A) (A) (A) (A) (A) (A) (A) (A) (A) (A) (A) (A)
                 (A) (A) (A) (A) (A) (A) (A) (A) (A) (A) (A) (A)
                 (A) (A) (A) (A) (A) (A) (A) (A) (A) (A) (A) (A)
                 (A) (A) (A) (A) (A) (A) (A) (A) (A) (A) (A) (A)
                 (A) (A) (A) (A) (A) (A) (A) (A) (A) (A) (A) (A)
                 (A) (A) (A) (A) (A) (A) (A) (A) (A) (A) (A) (A)
                 (A) (A) (A) (A) (A) (A) (A) (A) (A) (A) (A) (A)
                 (A) (A) (A) (A) (A) (A) (A) (A) (A) (A) (A) (A)
                 (A) (A) (A) (A) (A) (A) (A) (A) (A) (A) (A) (A)
                 (A) (A) (A) (A) (A) (A) (A) (A) (A) (A) (A) (A)
                 (A) (A) (A) (A) (A) (A) (A) (A) (A) (A) (A) (A)
                 (A) (A) (A) (A) (A) (A) (A) (A) (A) (A) (A) (A)
                 (A) (A) (A) (A) (A) (A) (A) (A) (A) (A) (A) (A)
                 (A) (A) (A) (A) (A) (A) (A) (A) (A) (A) (A) (A)
                 (A) (A) (A) (A) (A) (A) (A) (A) (A) (A) (A) (A)
                 (A) (A) (A) (A) (A) (A) (A) (A) (A) (A) (A) (A)
                 (A) (A) (A) (A) (A) (A) (A) (A) (A) (A) (A) (A)
                 (A) (A) (A) (A) (A) (A) (A) (A) (A) (A) (A) (A)
                 (A) (A) (A) (A) (A) (A) (A) (A) (A) (A) (A) (A)
                 (A)
 The electronic state is 1-A.
 Alpha  occ. eigenvalues --  -18.69901 -18.68508 -14.05819 -14.05363 -14.04471
 Alpha  occ. eigenvalues --  -13.97948 -10.05204  -9.95530  -9.95105  -9.91708
 Alpha  occ. eigenvalues --   -9.91027  -9.89853  -0.99338  -0.91538  -0.88754
 Alpha  occ. eigenvalues --   -0.87589  -0.81645  -0.79919  -0.73225  -0.67396
 Alpha  occ. eigenvalues --   -0.62929  -0.60291  -0.59190  -0.55750  -0.54292
 Alpha  occ. eigenvalues --   -0.49581  -0.49471  -0.46848  -0.45644  -0.45174
 Alpha  occ. eigenvalues --   -0.43040  -0.41934  -0.39499  -0.37872  -0.36436
 Alpha  occ. eigenvalues --   -0.34917  -0.33270  -0.32227  -0.31176  -0.30259
 Alpha  occ. eigenvalues --   -0.29044  -0.27998  -0.25437  -0.22656  -0.19364
 Alpha  occ. eigenvalues --   -0.18208  -0.16176
 Alpha virt. eigenvalues --   -0.02898   0.00252   0.00595   0.02404   0.03254
 Alpha virt. eigenvalues --    0.03958   0.05215   0.05732   0.06548   0.08063
 Alpha virt. eigenvalues --    0.08867   0.09455   0.10099   0.11064   0.11494
 Alpha virt. eigenvalues --    0.12334   0.12380   0.13862   0.14672   0.15869
 Alpha virt. eigenvalues --    0.16006   0.18715   0.18850   0.19899   0.20847
 Alpha virt. eigenvalues --    0.21407   0.21736   0.22933   0.23630   0.24635
 Alpha virt. eigenvalues --    0.25621   0.26538   0.27040   0.27704   0.30038
 Alpha virt. eigenvalues --    0.30334   0.30577   0.31475   0.32206   0.33089
 Alpha virt. eigenvalues --    0.33459   0.34100   0.35519   0.36320   0.36958
 Alpha virt. eigenvalues --    0.38338   0.38827   0.39300   0.40294   0.41311
 Alpha virt. eigenvalues --    0.42137   0.42311   0.42962   0.44313   0.44487
 Alpha virt. eigenvalues --    0.44827   0.45187   0.45668   0.46713   0.47059
 Alpha virt. eigenvalues --    0.47917   0.48458   0.49545   0.50314   0.50778
 Alpha virt. eigenvalues --    0.51537   0.52021   0.52399   0.53128   0.54705
 Alpha virt. eigenvalues --    0.55941   0.57142   0.59088   0.59549   0.60944
 Alpha virt. eigenvalues --    0.61569   0.63095   0.63580   0.65755   0.66091
 Alpha virt. eigenvalues --    0.67319   0.68460   0.69574   0.71681   0.73806
 Alpha virt. eigenvalues --    0.78481   0.79804   0.84923   0.95095   1.08980
 Alpha virt. eigenvalues --    1.10142   1.13688   1.14790   1.19085   1.19749
 Alpha virt. eigenvalues --    1.21393   1.22641   1.24078   1.24797   1.25304
 Alpha virt. eigenvalues --    1.25941   1.27219   1.28901   1.29599   1.30871
 Alpha virt. eigenvalues --    1.32322   1.33728   1.35387   1.37498   1.38570
 Alpha virt. eigenvalues --    1.39465   1.40405   1.40798   1.44285   1.45476
 Alpha virt. eigenvalues --    1.45928   1.47048   1.47861   1.49447   1.50142
 Alpha virt. eigenvalues --    1.50311   1.50996   1.52871   1.55641   1.57394
 Alpha virt. eigenvalues --    1.59024   1.60206   1.61324   1.61452   1.64292
 Alpha virt. eigenvalues --    1.64534   1.66051   1.66585   1.67790   1.68579
 Alpha virt. eigenvalues --    1.69951   1.71291   1.74497   1.75081   1.76185
 Alpha virt. eigenvalues --    1.77308   1.78536   1.78914   1.81323   1.82262
 Alpha virt. eigenvalues --    1.84131   1.84549   1.86195   1.86576   1.87379
 Alpha virt. eigenvalues --    1.88637   1.90794   1.91538   1.91822   1.95161
 Alpha virt. eigenvalues --    1.97114   1.98224   2.01377   2.04454   2.06170
 Alpha virt. eigenvalues --    2.07420   2.07445   2.09980   2.10379   2.11227
 Alpha virt. eigenvalues --    2.12479   2.14098   2.15536   2.16014   2.19562
 Alpha virt. eigenvalues --    2.21717   2.23359   2.26632   2.27921   2.28397
 Alpha virt. eigenvalues --    2.31333   2.32880   2.34604   2.35926   2.38537
 Alpha virt. eigenvalues --    2.40117   2.41772   2.43270   2.44497   2.46461
 Alpha virt. eigenvalues --    2.47611   2.48482   2.49437   2.50322   2.51542
 Alpha virt. eigenvalues --    2.52861   2.54865   2.55583   2.57956   2.58629
 Alpha virt. eigenvalues --    2.58929   2.59632   2.60155   2.60864   2.61826
 Alpha virt. eigenvalues --    2.62555   2.62899   2.63507   2.64786   2.65182
 Alpha virt. eigenvalues --    2.67261   2.68405   2.68965   2.70650   2.72340
 Alpha virt. eigenvalues --    2.73630   2.74781   2.77769   2.78350   2.81423
 Alpha virt. eigenvalues --    2.81633   2.81827   2.83302   2.84740   2.86818
 Alpha virt. eigenvalues --    2.87414   2.94281   2.99643   2.99841   3.03237
 Alpha virt. eigenvalues --    3.04811   3.06956   3.08778   3.12172   3.14791
 Alpha virt. eigenvalues --    3.20284   3.23906   3.25719   3.28801   3.29735
 Alpha virt. eigenvalues --    3.32138   3.32959   3.34269   3.36379   3.39558
 Alpha virt. eigenvalues --    3.41582   3.50607   3.53726   3.55908   3.63950
 Alpha virt. eigenvalues --    3.67745   3.76088   3.84965   3.86200   3.99041
 Alpha virt. eigenvalues --    4.00522   4.08941   4.12680  21.74610  21.76403
 Alpha virt. eigenvalues --   21.80215  21.84243  21.85805  21.87544  31.38635
 Alpha virt. eigenvalues --   31.46927  31.49384  31.55500  43.19012  43.25429
          Condensed to atoms (all electrons):
               1          2          3          4          5          6
     1  N    6.272639   0.464446  -0.072746  -0.068771   0.025148   0.000059
     2  C    0.464446   4.428467   0.470485   0.474934  -0.074177   0.017084
     3  N   -0.072746   0.470485   6.236057  -0.077205   0.001749  -0.000087
     4  N   -0.068771   0.474934  -0.077205   6.463567   0.202802  -0.022182
     5  C    0.025148  -0.074177   0.001749   0.202802   5.226572   0.111408
     6  C    0.000059   0.017084  -0.000087  -0.022182   0.111408   5.579125
     7  C    0.000136  -0.001279   0.000003   0.002633   0.033394  -0.149700
     8  C   -0.000001  -0.000048  -0.000002  -0.000539  -0.000228   0.132058
     9  N   -0.000000  -0.000001   0.000000   0.000000  -0.000457   0.010829
    10  C   -0.000000   0.000035   0.000000   0.000093   0.001454  -0.010229
    11  O   -0.000000  -0.000000   0.000000  -0.000009   0.000162   0.008631
    12  O    0.000000   0.000002  -0.000000   0.000011   0.000447  -0.028097
    13  H    0.378594  -0.024297  -0.001333   0.004373   0.000196  -0.000093
    14  H    0.377395  -0.021107   0.003737  -0.003618   0.003019   0.000418
    15  H    0.004420  -0.025049   0.387293   0.000463   0.001145  -0.000201
    16  H   -0.000840  -0.024369   0.388662   0.003175  -0.000714   0.000053
    17  H    0.004415  -0.040047  -0.001337   0.379637  -0.018600  -0.007996
    18  H    0.006221  -0.019888   0.000226  -0.037908   0.420450  -0.024718
    19  H    0.000187  -0.011820   0.000231  -0.061141   0.437767  -0.044195
    20  H    0.000166  -0.001238  -0.000189  -0.000220  -0.038136   0.387355
    21  H    0.000048   0.001727  -0.000017   0.006225  -0.065501   0.397217
    22  H   -0.000030   0.000209   0.000001   0.000673  -0.014662  -0.007233
    23  H   -0.000004  -0.000121  -0.000003  -0.000253  -0.009926  -0.034035
    24  H    0.000000  -0.000003  -0.000000  -0.000042   0.000599  -0.021333
    25  H   -0.000000   0.000000  -0.000000  -0.000000   0.000085  -0.002071
    26  H   -0.000000  -0.000000  -0.000000   0.000000  -0.000206   0.001152
               7          8          9         10         11         12
     1  N    0.000136  -0.000001  -0.000000  -0.000000  -0.000000   0.000000
     2  C   -0.001279  -0.000048  -0.000001   0.000035  -0.000000   0.000002
     3  N    0.000003  -0.000002   0.000000   0.000000   0.000000  -0.000000
     4  N    0.002633  -0.000539   0.000000   0.000093  -0.000009   0.000011
     5  C    0.033394  -0.000228  -0.000457   0.001454   0.000162   0.000447
     6  C   -0.149700   0.132058   0.010829  -0.010229   0.008631  -0.028097
     7  C    6.101871  -0.398312  -0.038525   0.019267  -0.004438   0.030630
     8  C   -0.398312   7.074779   0.132778  -0.375056  -0.238728  -0.240623
     9  N   -0.038525   0.132778   6.644142  -0.017121   0.002714  -0.012670
    10  C    0.019267  -0.375056  -0.017121   5.190640   0.624959   0.558002
    11  O   -0.004438  -0.238728   0.002714   0.624959   8.187494  -0.183406
    12  O    0.030630  -0.240623  -0.012670   0.558002  -0.183406   8.336499
    13  H    0.000001  -0.000000  -0.000000   0.000000  -0.000000   0.000000
    14  H    0.000025  -0.000001   0.000000  -0.000000   0.000000  -0.000000
    15  H    0.000014  -0.000001   0.000000   0.000000  -0.000000   0.000000
    16  H   -0.000003   0.000000  -0.000000   0.000000  -0.000000   0.000000
    17  H    0.000123   0.000101   0.000001  -0.000030   0.000015  -0.000036
    18  H   -0.003080  -0.001099  -0.000005   0.000016  -0.000000  -0.000004
    19  H    0.012649   0.001286   0.000036  -0.000464  -0.000013  -0.000058
    20  H   -0.008552  -0.010045   0.000587  -0.001827   0.001443   0.001162
    21  H   -0.008294  -0.030029  -0.000430   0.017256  -0.005115   0.011727
    22  H    0.340672  -0.002082   0.006995   0.006951  -0.001038  -0.000012
    23  H    0.343167  -0.011765  -0.010424  -0.007931   0.002740   0.023091
    24  H   -0.005485   0.243729  -0.030933  -0.012956   0.031895   0.015509
    25  H    0.024466  -0.118421   0.384727   0.034461   0.002808   0.001152
    26  H   -0.036013  -0.038284   0.354573  -0.000740   0.001768   0.022224
              13         14         15         16         17         18
     1  N    0.378594   0.377395   0.004420  -0.000840   0.004415   0.006221
     2  C   -0.024297  -0.021107  -0.025049  -0.024369  -0.040047  -0.019888
     3  N   -0.001333   0.003737   0.387293   0.388662  -0.001337   0.000226
     4  N    0.004373  -0.003618   0.000463   0.003175   0.379637  -0.037908
     5  C    0.000196   0.003019   0.001145  -0.000714  -0.018600   0.420450
     6  C   -0.000093   0.000418  -0.000201   0.000053  -0.007996  -0.024718
     7  C    0.000001   0.000025   0.000014  -0.000003   0.000123  -0.003080
     8  C   -0.000000  -0.000001  -0.000001   0.000000   0.000101  -0.001099
     9  N   -0.000000   0.000000   0.000000  -0.000000   0.000001  -0.000005
    10  C    0.000000  -0.000000   0.000000   0.000000  -0.000030   0.000016
    11  O   -0.000000   0.000000  -0.000000  -0.000000   0.000015  -0.000000
    12  O    0.000000  -0.000000   0.000000   0.000000  -0.000036  -0.000004
    13  H    0.361135  -0.011601   0.000379   0.001242  -0.000209   0.000212
    14  H   -0.011601   0.350089  -0.000369   0.000413   0.000214   0.000954
    15  H    0.000379  -0.000369   0.362247  -0.013897   0.002172  -0.000025
    16  H    0.001242   0.000413  -0.013897   0.364685   0.000355   0.000021
    17  H   -0.000209   0.000214   0.002172   0.000355   0.379677   0.004191
    18  H    0.000212   0.000954  -0.000025   0.000021   0.004191   0.519023
    19  H   -0.000041  -0.000716  -0.000007  -0.000012   0.000875  -0.037347
    20  H   -0.000001  -0.000004   0.000017  -0.000005  -0.000453  -0.007914
    21  H    0.000006  -0.000023   0.000037   0.000006   0.003281   0.005789
    22  H    0.000000  -0.000005  -0.000000   0.000000   0.000040   0.002238
    23  H   -0.000000   0.000003   0.000000  -0.000000  -0.000038   0.000465
    24  H    0.000000  -0.000000   0.000000   0.000000  -0.000012   0.000250
    25  H    0.000000  -0.000000   0.000000   0.000000  -0.000000  -0.000001
    26  H   -0.000000  -0.000000   0.000000  -0.000000  -0.000000   0.000006
              19         20         21         22         23         24
     1  N    0.000187   0.000166   0.000048  -0.000030  -0.000004   0.000000
     2  C   -0.011820  -0.001238   0.001727   0.000209  -0.000121  -0.000003
     3  N    0.000231  -0.000189  -0.000017   0.000001  -0.000003  -0.000000
     4  N   -0.061141  -0.000220   0.006225   0.000673  -0.000253  -0.000042
     5  C    0.437767  -0.038136  -0.065501  -0.014662  -0.009926   0.000599
     6  C   -0.044195   0.387355   0.397217  -0.007233  -0.034035  -0.021333
     7  C    0.012649  -0.008552  -0.008294   0.340672   0.343167  -0.005485
     8  C    0.001286  -0.010045  -0.030029  -0.002082  -0.011765   0.243729
     9  N    0.000036   0.000587  -0.000430   0.006995  -0.010424  -0.030933
    10  C   -0.000464  -0.001827   0.017256   0.006951  -0.007931  -0.012956
    11  O   -0.000013   0.001443  -0.005115  -0.001038   0.002740   0.031895
    12  O   -0.000058   0.001162   0.011727  -0.000012   0.023091   0.015509
    13  H   -0.000041  -0.000001   0.000006   0.000000  -0.000000   0.000000
    14  H   -0.000716  -0.000004  -0.000023  -0.000005   0.000003  -0.000000
    15  H   -0.000007   0.000017   0.000037  -0.000000   0.000000   0.000000
    16  H   -0.000012  -0.000005   0.000006   0.000000  -0.000000   0.000000
    17  H    0.000875  -0.000453   0.003281   0.000040  -0.000038  -0.000012
    18  H   -0.037347  -0.007914   0.005789   0.002238   0.000465   0.000250
    19  H    0.509603   0.005753  -0.004299  -0.000297   0.001308  -0.000097
    20  H    0.005753   0.520743  -0.021919  -0.004407   0.006370   0.006991
    21  H   -0.004299  -0.021919   0.544839   0.006679  -0.003598   0.000856
    22  H   -0.000297  -0.004407   0.006679   0.577156  -0.026869  -0.012937
    23  H    0.001308   0.006370  -0.003598  -0.026869   0.576177   0.011041
    24  H   -0.000097   0.006991   0.000856  -0.012937   0.011041   0.624448
    25  H   -0.000001   0.000020   0.000023  -0.000936  -0.000445  -0.005330
    26  H   -0.000015   0.000034   0.000001  -0.000991   0.014031   0.012791
              25         26
     1  N   -0.000000  -0.000000
     2  C    0.000000  -0.000000
     3  N   -0.000000  -0.000000
     4  N   -0.000000   0.000000
     5  C    0.000085  -0.000206
     6  C   -0.002071   0.001152
     7  C    0.024466  -0.036013
     8  C   -0.118421  -0.038284
     9  N    0.384727   0.354573
    10  C    0.034461  -0.000740
    11  O    0.002808   0.001768
    12  O    0.001152   0.022224
    13  H    0.000000  -0.000000
    14  H   -0.000000  -0.000000
    15  H    0.000000   0.000000
    16  H    0.000000  -0.000000
    17  H   -0.000000  -0.000000
    18  H   -0.000001   0.000006
    19  H   -0.000001  -0.000015
    20  H    0.000020   0.000034
    21  H    0.000023   0.000001
    22  H   -0.000936  -0.000991
    23  H   -0.000445   0.014031
    24  H   -0.005330   0.012791
    25  H    0.492423  -0.029346
    26  H   -0.029346   0.492180
 Mulliken charges:
               1
     1  N   -0.391481
     2  C    0.386056
     3  N   -0.335526
     4  N   -0.266698
     5  C   -0.243791
     6  C   -0.293222
     7  C   -0.255367
     8  C   -0.119467
     9  N   -0.426817
    10  C   -0.026782
    11  O   -0.431881
    12  O   -0.535550
    13  H    0.291437
    14  H    0.301176
    15  H    0.281359
    16  H    0.281227
    17  H    0.293660
    18  H    0.171927
    19  H    0.190826
    20  H    0.164268
    21  H    0.143508
    22  H    0.129883
    23  H    0.127017
    24  H    0.141019
    25  H    0.216386
    26  H    0.206835
 Sum of Mulliken charges =  -0.00000
 Mulliken charges with hydrogens summed into heavy atoms:
               1
     1  N    0.201132
     2  C    0.386056
     3  N    0.227060
     4  N    0.026961
     5  C    0.118962
     6  C    0.014554
     7  C    0.001533
     8  C    0.021552
     9  N   -0.003595
    10  C   -0.026782
    11  O   -0.431881
    12  O   -0.535550
 Electronic spatial extent (au):  <R**2>=           3784.6558
 Charge=             -0.0000 electrons
 Dipole moment (field-independent basis, Debye):
    X=            -31.5919    Y=             -5.4159    Z=             -1.6612  Tot=             32.0958
 Quadrupole moment (field-independent basis, Debye-Ang):
   XX=            -41.9545   YY=            -79.3647   ZZ=            -83.0831
   XY=            -23.7907   XZ=             -6.2956   YZ=             -2.2204
 Traceless Quadrupole moment (field-independent basis, Debye-Ang):
   XX=             26.1796   YY=            -11.2306   ZZ=            -14.9490
   XY=            -23.7907   XZ=             -6.2956   YZ=             -2.2204
 Octapole moment (field-independent basis, Debye-Ang**2):
  XXX=           -532.0926  YYY=              2.9300  ZZZ=             -7.2229  XYY=           -119.1557
  XXY=            -55.4069  XXZ=             -9.0811  XZZ=            -28.8336  YZZ=            -13.7736
  YYZ=              5.0455  XYZ=             -5.4599
 Hexadecapole moment (field-independent basis, Debye-Ang**3):
 XXXX=          -2398.1116 YYYY=           -592.1678 ZZZZ=           -231.0037 XXXY=           -304.9870
 XXXZ=            -97.2483 YYYX=            -45.6230 YYYZ=             -2.4990 ZZZX=            -22.6000
 ZZZY=             -9.1874 XXYY=           -785.1992 XXZZ=           -820.5539 YYZZ=           -146.0388
 XXYZ=            -24.7815 YYXZ=             17.9277 ZZXY=            -44.5830
 N-N= 7.091788088443D+02 E-N=-2.837012086001D+03  KE= 6.049332405390D+02
 No NMR shielding tensors so no spin-rotation constants.
 Leave Link  601 at Mon Feb 22 21:16:31 2021, MaxMem=   104857600 cpu:               7.3 elap:               0.3
 (Enter /sw/arch/RedHatEnterpriseServer7/EB_production/2019/software/Gaussian/g16.c01/l701.exe)
 ... and contract with generalized density number  0.
 Compute integral first derivatives.
 R6Disp: Adding Grimme-D3 dispersion energy 1st derivatives to the gradient.
 PrsmSu:  requested number of processors reduced to:  28 ShMem   1 Linda.
 D1PCM: PCM CHGder 1st derivatives, ID1Alg=3 FixD1E=F DoIter=F DoCFld=F I1PDM=0.
 GePol: Maximum number of non-zero 1st derivatives   =     221
 CoulSu:  requested number of processors reduced to:  28 ShMem   1 Linda.
 CoulSu:  requested number of processors reduced to:  29 ShMem   1 Linda.
 Leave Link  701 at Mon Feb 22 21:16:32 2021, MaxMem=   104857600 cpu:              27.4 elap:               0.9
 (Enter /sw/arch/RedHatEnterpriseServer7/EB_production/2019/software/Gaussian/g16.c01/l702.exe)
 L702 exits ... SP integral derivatives will be done elsewhere.
 Leave Link  702 at Mon Feb 22 21:16:32 2021, MaxMem=   104857600 cpu:               0.9 elap:               0.1
 (Enter /sw/arch/RedHatEnterpriseServer7/EB_production/2019/software/Gaussian/g16.c01/l703.exe)
 Integral derivatives from FoFJK, PRISM(SPDF).
 Compute integral first derivatives, UseDBF=F ICtDFT=           0.
 Calling FoFJK, ICntrl=      2527 FMM=F ISym2X=0 I1Cent= 0 IOpClX= 0 NMat=1 NMatS=1 NMatT=0.
 FoFJK:  IHMeth= 1 ICntrl=    2527 DoSepK=F KAlg= 0 I1Cent=           0 FoldK=F
 IRaf=         0 NMat=       1 IRICut=       1 DoRegI=T DoRafI=F ISym2E= 0 IDoP0=0 IntGTp=1.
 FoFCou: FMM=F IPFlag=           0 FMFlag=      100000 FMFlg1=         800
         NFxFlg=           0 DoJE=F BraDBF=F KetDBF=F FulRan=T
         wScrn=  0.000000 ICntrl=      2527 IOpCl=  0 I1Cent=           0 NGrid=           0
         NMat0=    1 NMatS0=      1 NMatT0=    0 NMatD0=    1 NMtDS0=    0 NMtDT0=    0
 Symmetry not used in FoFCou.
 Leave Link  703 at Mon Feb 22 21:16:35 2021, MaxMem=   104857600 cpu:              90.4 elap:               2.9
 (Enter /sw/arch/RedHatEnterpriseServer7/EB_production/2019/software/Gaussian/g16.c01/l716.exe)
 Dipole        =-1.24291990D+01-2.13077582D+00-6.53565547D-01
 ***** Axes restored to original set *****
 -------------------------------------------------------------------
 Center     Atomic                   Forces (Hartrees/Bohr)
 Number     Number              X              Y              Z
 -------------------------------------------------------------------
      1        7           0.010561366    0.020641772    0.003126730
      2        6           0.039790641    0.001523841   -0.023103843
      3        7           0.005980531   -0.000262036   -0.005329698
      4        7           0.003829568   -0.029314836   -0.017652393
      5        6           0.022031547    0.007917055   -0.007748311
      6        6           0.008628179   -0.007644349   -0.003430654
      7        6          -0.011094400    0.005801179   -0.001045207
      8        6           0.001303209   -0.027639479   -0.007660548
      9        7           0.005642462   -0.008528881   -0.010169902
     10        6           0.009673890    0.021032074    0.093662319
     11        8          -0.012718945    0.012879415   -0.020812815
     12        8          -0.011419328   -0.012741597   -0.052794062
     13        1          -0.028109907   -0.032175516    0.003994874
     14        1           0.033325238   -0.014067556   -0.025005423
     15        1          -0.015814402    0.075717074    0.039289240
     16        1          -0.064528122   -0.057874491    0.015774571
     17        1          -0.009507694    0.040857538    0.020027592
     18        1           0.000566338   -0.002733434   -0.004813228
     19        1           0.007076147   -0.004360556    0.001706666
     20        1          -0.003194687    0.003843023   -0.002758326
     21        1          -0.000796439    0.003213987    0.005245098
     22        1           0.002301485   -0.002301446   -0.004622817
     23        1           0.003263615   -0.000037115    0.003829976
     24        1          -0.004308049    0.003047679   -0.002843514
     25        1           0.004841464    0.000637660    0.000386479
     26        1           0.002676291    0.002568994    0.002747197
 -------------------------------------------------------------------
 Cartesian Forces:  Max     0.093662319 RMS     0.022799697
 Leave Link  716 at Mon Feb 22 21:16:35 2021, MaxMem=   104857600 cpu:               0.8 elap:               0.1
 (Enter /sw/arch/RedHatEnterpriseServer7/EB_production/2019/software/Gaussian/g16.c01/l103.exe)

 GradGradGradGradGradGradGradGradGradGradGradGradGradGradGradGradGradGrad
 Berny optimization.
 FormGI is forming the generalized inverse of G from B-inverse, IUseBI=4.
 Internal  Forces:  Max     0.091166641 RMS     0.017824926
 Search for a local minimum.
 Step number   1 out of a maximum of  134
 All quantities printed in internal units (Hartrees-Bohrs-Radians)
 RMS Force = .17825D-01 SwitMx=.10000D-02 MixMth= 1
 Mixed Optimization -- RFO/linear search
 Second derivative matrix not updated -- first step.
 ITU=  0
     Eigenvalues ---    0.00230   0.00230   0.00230   0.00785   0.01050
     Eigenvalues ---    0.01051   0.01317   0.01849   0.02639   0.02781
     Eigenvalues ---    0.02782   0.02901   0.03326   0.03326   0.03412
     Eigenvalues ---    0.03430   0.04474   0.04562   0.04759   0.04764
     Eigenvalues ---    0.04877   0.05137   0.05554   0.06749   0.08303
     Eigenvalues ---    0.08318   0.09155   0.12197   0.12210   0.12610
     Eigenvalues ---    0.15991   0.16000   0.16000   0.16000   0.16000
     Eigenvalues ---    0.16000   0.16000   0.17548   0.18482   0.21961
     Eigenvalues ---    0.21968   0.21973   0.22003   0.25000   0.25000
     Eigenvalues ---    0.25000   0.25000   0.27355   0.27410   0.27750
     Eigenvalues ---    0.34281   0.34290   0.34308   0.34370   0.34434
     Eigenvalues ---    0.34453   0.34534   0.34741   0.35917   0.41228
     Eigenvalues ---    0.43945   0.44006   0.53314   0.53471   0.53483
     Eigenvalues ---    0.54477   0.59893   0.61047   0.61280   0.62525
     Eigenvalues ---    0.74185   0.82719
 RFO step:  Lambda=-6.61644397D-02 EMin= 2.30000000D-03
 Linear search not attempted -- first point.
 Maximum step size (   0.300) exceeded in Quadratic search.
    -- Step size scaled by   0.859
 Iteration  1 RMS(Cart)=  0.06298235 RMS(Int)=  0.00128336
 Iteration  2 RMS(Cart)=  0.00255187 RMS(Int)=  0.00005148
 Iteration  3 RMS(Cart)=  0.00000446 RMS(Int)=  0.00005141
 Iteration  4 RMS(Cart)=  0.00000000 RMS(Int)=  0.00005141
 ITry= 1 IFail=0 DXMaxC= 2.70D-01 DCOld= 1.00D+10 DXMaxT= 3.00D-01 DXLimC= 3.00D+00 Rises=F
 Variable       Old X    -DE/DX   Delta X   Delta X   Delta X     New X
                                 (Linear)    (Quad)   (Total)
    R1        2.48997   0.03198   0.00000   0.03974   0.03974   2.52970
    R2        1.83361   0.04270   0.00000   0.06120   0.06120   1.89481
    R3        1.83217   0.04373   0.00000   0.06252   0.06252   1.89469
    R4        2.41212   0.09117   0.00000   0.09692   0.09692   2.50904
    R5        2.51025   0.01843   0.00000   0.02380   0.02380   2.53405
    R6        1.76822   0.08651   0.00000   0.10983   0.10983   1.87804
    R7        1.76641   0.08784   0.00000   0.11113   0.11113   1.87754
    R8        2.69919   0.02718   0.00000   0.04880   0.04880   2.74799
    R9        1.83206   0.04647   0.00000   0.06642   0.06642   1.89848
   R10        2.92689  -0.00748   0.00000  -0.01870  -0.01870   2.90819
   R11        2.06814   0.00540   0.00000   0.01133   0.01133   2.07947
   R12        2.06438   0.00770   0.00000   0.01608   0.01608   2.08047
   R13        2.93448  -0.00946   0.00000  -0.02388  -0.02388   2.91060
   R14        2.06604   0.00549   0.00000   0.01148   0.01148   2.07752
   R15        2.06573   0.00619   0.00000   0.01295   0.01295   2.07868
   R16        2.93571  -0.01006   0.00000  -0.02543  -0.02543   2.91028
   R17        2.06858   0.00526   0.00000   0.01106   0.01106   2.07964
   R18        2.06844   0.00464   0.00000   0.00975   0.00975   2.07819
   R19        2.77512   0.01503   0.00000   0.03035   0.03035   2.80546
   R20        2.79398   0.03008   0.00000   0.06248   0.06248   2.85646
   R21        2.06709   0.00537   0.00000   0.01126   0.01126   2.07836
   R22        1.93147   0.00213   0.00000   0.00362   0.00362   1.93509
   R23        1.93221   0.00287   0.00000   0.00487   0.00487   1.93708
   R24        2.36482   0.02047   0.00000   0.01968   0.01968   2.38450
   R25        2.55600  -0.05007   0.00000  -0.07040  -0.07040   2.48559
    A1        2.09482   0.00240   0.00000   0.00911   0.00911   2.10393
    A2        2.09848   0.00302   0.00000   0.01148   0.01148   2.10996
    A3        2.08985  -0.00542   0.00000  -0.02057  -0.02057   2.06928
    A4        2.06559   0.01138   0.00000   0.03092   0.03092   2.09651
    A5        2.15779  -0.02317   0.00000  -0.06296  -0.06296   2.09483
    A6        2.05980   0.01179   0.00000   0.03204   0.03204   2.09184
    A7        2.09776   0.00376   0.00000   0.01428   0.01428   2.11204
    A8        2.09434   0.00414   0.00000   0.01572   0.01572   2.11006
    A9        2.09106  -0.00789   0.00000  -0.02998  -0.02998   2.06108
   A10        2.20151  -0.00398   0.00000  -0.01194  -0.01194   2.18957
   A11        2.04049   0.00200   0.00000   0.00603   0.00603   2.04652
   A12        2.04029   0.00198   0.00000   0.00593   0.00593   2.04622
   A13        1.92019   0.00005   0.00000   0.00132   0.00131   1.92150
   A14        1.92717  -0.00057   0.00000  -0.00284  -0.00284   1.92434
   A15        1.89743   0.00304   0.00000   0.01742   0.01743   1.91486
   A16        1.90028   0.00000   0.00000  -0.00269  -0.00271   1.89757
   A17        1.92082  -0.00178   0.00000  -0.00739  -0.00744   1.91338
   A18        1.89788  -0.00078   0.00000  -0.00599  -0.00602   1.89185
   A19        1.97536  -0.00596   0.00000  -0.01807  -0.01806   1.95731
   A20        1.89160   0.00246   0.00000   0.00870   0.00871   1.90031
   A21        1.90759   0.00119   0.00000   0.00174   0.00174   1.90933
   A22        1.90893   0.00160   0.00000   0.00501   0.00504   1.91397
   A23        1.89510   0.00226   0.00000   0.00675   0.00672   1.90182
   A24        1.88319  -0.00140   0.00000  -0.00366  -0.00369   1.87950
   A25        1.97563  -0.00369   0.00000  -0.01197  -0.01198   1.96366
   A26        1.89831   0.00269   0.00000   0.01361   0.01359   1.91190
   A27        1.90560   0.00150   0.00000   0.00399   0.00387   1.90947
   A28        1.88969   0.00033   0.00000   0.00025   0.00032   1.89000
   A29        1.91429  -0.00042   0.00000  -0.00725  -0.00727   1.90702
   A30        1.87774  -0.00025   0.00000   0.00219   0.00213   1.87987
   A31        1.91255  -0.00380   0.00000  -0.01165  -0.01145   1.90110
   A32        1.97775  -0.00574   0.00000  -0.02136  -0.02132   1.95643
   A33        1.88725   0.00253   0.00000   0.00318   0.00305   1.89030
   A34        1.90677   0.00920   0.00000   0.03531   0.03525   1.94202
   A35        1.86529  -0.00047   0.00000   0.00335   0.00330   1.86859
   A36        1.91085  -0.00155   0.00000  -0.00795  -0.00821   1.90264
   A37        1.86998   0.00626   0.00000   0.02259   0.02260   1.89258
   A38        1.87603  -0.00007   0.00000  -0.00141  -0.00140   1.87463
   A39        1.87023  -0.00365   0.00000  -0.01660  -0.01659   1.85364
   A40        2.10774  -0.00872   0.00000  -0.02362  -0.02371   2.08403
   A41        2.10943  -0.02614   0.00000  -0.07097  -0.07107   2.03837
   A42        2.06596   0.03488   0.00000   0.09483   0.09474   2.16069
[...]
                 (A) (A) (A) (A) (A) (A) (A) (A) (A) (A) (A) (A)
                 (A) (A) (A) (A) (A) (A) (A) (A) (A) (A) (A) (A)
                 (A) (A) (A) (A) (A) (A) (A) (A) (A) (A) (A) (A)
                 (A) (A) (A) (A) (A) (A) (A) (A) (A) (A) (A) (A)
                 (A) (A) (A) (A) (A) (A) (A) (A) (A) (A) (A) (A)
                 (A) (A) (A) (A) (A) (A) (A) (A) (A) (A) (A) (A)
                 (A) (A) (A) (A) (A) (A) (A) (A) (A) (A) (A) (A)
                 (A) (A) (A) (A) (A) (A) (A) (A) (A) (A) (A) (A)
                 (A) (A) (A) (A) (A) (A) (A) (A) (A) (A) (A) (A)
                 (A) (A) (A) (A) (A) (A) (A) (A) (A) (A) (A) (A)
                 (A) (A) (A) (A) (A) (A) (A) (A) (A) (A) (A) (A)
                 (A) (A) (A) (A) (A) (A) (A) (A) (A) (A) (A) (A)
                 (A) (A) (A) (A) (A) (A) (A) (A) (A) (A) (A) (A)
                 (A) (A) (A) (A) (A) (A) (A) (A) (A) (A) (A) (A)
                 (A) (A) (A) (A) (A) (A) (A) (A) (A) (A) (A) (A)
                 (A) (A) (A) (A) (A) (A) (A) (A) (A) (A) (A) (A)
                 (A) (A) (A) (A) (A) (A) (A) (A) (A) (A) (A) (A)
                 (A) (A) (A) (A) (A) (A) (A) (A) (A) (A) (A) (A)
                 (A)
 The electronic state is 1-A.
 Alpha  occ. eigenvalues --  -18.71079 -18.70992 -14.05032 -14.04338 -14.04042
 Alpha  occ. eigenvalues --  -13.97666 -10.04546  -9.96793  -9.94305  -9.91504
 Alpha  occ. eigenvalues --   -9.90043  -9.89309  -0.94838  -0.93255  -0.85000
 Alpha  occ. eigenvalues --   -0.84923  -0.83343  -0.79908  -0.72384  -0.65877
 Alpha  occ. eigenvalues --   -0.59929  -0.57814  -0.55279  -0.52858  -0.51742
 Alpha  occ. eigenvalues --   -0.46576  -0.46068  -0.46005  -0.43875  -0.43029
 Alpha  occ. eigenvalues --   -0.41791  -0.39566  -0.39403  -0.37501  -0.36451
 Alpha  occ. eigenvalues --   -0.35336  -0.33256  -0.32424  -0.31266  -0.30039
 Alpha  occ. eigenvalues --   -0.28809  -0.25910  -0.24075  -0.23653  -0.21872
 Alpha  occ. eigenvalues --   -0.19570  -0.18083
 Alpha virt. eigenvalues --   -0.02763   0.00508   0.01288   0.02833   0.03944
 Alpha virt. eigenvalues --    0.04515   0.05490   0.05904   0.06640   0.08314
 Alpha virt. eigenvalues --    0.08408   0.10094   0.10404   0.11650   0.11735
 Alpha virt. eigenvalues --    0.12540   0.13415   0.13784   0.14880   0.15990
 Alpha virt. eigenvalues --    0.16568   0.19057   0.19506   0.20210   0.20815
 Alpha virt. eigenvalues --    0.21828   0.21932   0.23247   0.24115   0.24935
 Alpha virt. eigenvalues --    0.25677   0.26428   0.26790   0.27652   0.29008
 Alpha virt. eigenvalues --    0.29327   0.30445   0.31262   0.32056   0.32184
 Alpha virt. eigenvalues --    0.33631   0.34382   0.35828   0.36350   0.37072
 Alpha virt. eigenvalues --    0.37367   0.39238   0.40068   0.40363   0.41476
 Alpha virt. eigenvalues --    0.41876   0.42781   0.43307   0.43363   0.44041
 Alpha virt. eigenvalues --    0.44066   0.45750   0.46132   0.46354   0.46870
 Alpha virt. eigenvalues --    0.47292   0.47709   0.48685   0.49003   0.50117
 Alpha virt. eigenvalues --    0.50702   0.51580   0.53080   0.53655   0.53811
 Alpha virt. eigenvalues --    0.55595   0.56610   0.56920   0.58782   0.60576
 Alpha virt. eigenvalues --    0.60926   0.63259   0.63644   0.65990   0.66631
 Alpha virt. eigenvalues --    0.67978   0.68395   0.69456   0.71668   0.74625
 Alpha virt. eigenvalues --    0.78357   0.79831   0.82582   0.91815   1.08300
 Alpha virt. eigenvalues --    1.10662   1.16759   1.18154   1.19688   1.20577
 Alpha virt. eigenvalues --    1.21901   1.23118   1.23990   1.24681   1.26191
 Alpha virt. eigenvalues --    1.26876   1.27124   1.29723   1.31577   1.32340
 Alpha virt. eigenvalues --    1.32905   1.33550   1.35965   1.37107   1.38178
 Alpha virt. eigenvalues --    1.39961   1.40902   1.41936   1.43389   1.44497
 Alpha virt. eigenvalues --    1.45690   1.46316   1.46810   1.47870   1.49750
 Alpha virt. eigenvalues --    1.50637   1.52469   1.52880   1.55111   1.55800
 Alpha virt. eigenvalues --    1.58936   1.60627   1.61292   1.63013   1.64025
 Alpha virt. eigenvalues --    1.65086   1.65947   1.66823   1.67328   1.68304
 Alpha virt. eigenvalues --    1.68744   1.71459   1.73482   1.74909   1.75834
 Alpha virt. eigenvalues --    1.78310   1.79585   1.80061   1.81722   1.82819
 Alpha virt. eigenvalues --    1.83667   1.84783   1.85937   1.86883   1.87563
 Alpha virt. eigenvalues --    1.88982   1.89917   1.90664   1.91920   1.93265
 Alpha virt. eigenvalues --    1.97483   1.98671   2.00646   2.02313   2.04630
 Alpha virt. eigenvalues --    2.06511   2.08387   2.09013   2.11363   2.11686
 Alpha virt. eigenvalues --    2.14136   2.14898   2.15419   2.18843   2.19295
 Alpha virt. eigenvalues --    2.20541   2.22862   2.25258   2.25968   2.27435
 Alpha virt. eigenvalues --    2.29894   2.30455   2.32662   2.35431   2.35596
 Alpha virt. eigenvalues --    2.37955   2.40322   2.41268   2.43368   2.45519
 Alpha virt. eigenvalues --    2.46553   2.47414   2.48260   2.50334   2.50406
 Alpha virt. eigenvalues --    2.50642   2.52007   2.53135   2.54534   2.55062
 Alpha virt. eigenvalues --    2.55613   2.56058   2.58023   2.59776   2.60130
 Alpha virt. eigenvalues --    2.61003   2.62539   2.62718   2.64090   2.64393
 Alpha virt. eigenvalues --    2.65539   2.65978   2.67605   2.68961   2.70972
 Alpha virt. eigenvalues --    2.72259   2.72729   2.73501   2.75360   2.76167
 Alpha virt. eigenvalues --    2.78189   2.78595   2.81331   2.83339   2.84740
 Alpha virt. eigenvalues --    2.86909   2.93100   2.96371   2.96804   3.01601
 Alpha virt. eigenvalues --    3.03421   3.07845   3.10367   3.12673   3.17002
 Alpha virt. eigenvalues --    3.20119   3.23608   3.25627   3.26458   3.29076
 Alpha virt. eigenvalues --    3.30532   3.31251   3.33391   3.35647   3.37197
 Alpha virt. eigenvalues --    3.40677   3.45433   3.46836   3.51046   3.55042
 Alpha virt. eigenvalues --    3.57948   3.74557   3.76561   3.85171   3.85788
 Alpha virt. eigenvalues --    3.90638   4.03669   4.12055  21.70644  21.72281
 Alpha virt. eigenvalues --   21.79077  21.80391  21.82421  21.90481  31.35879
 Alpha virt. eigenvalues --   31.40547  31.45738  31.52464  43.15569  43.25395
          Condensed to atoms (all electrons):
               1          2          3          4          5          6
     1  N    6.346461   0.447342  -0.065377  -0.075318   0.022420   0.000138
     2  C    0.447342   4.472692   0.461752   0.476206  -0.067968   0.017560
     3  N   -0.065377   0.461752   6.336969  -0.065776   0.002352   0.000110
     4  N   -0.075318   0.476206  -0.065776   6.466805   0.211415  -0.034382
     5  C    0.022420  -0.067968   0.002352   0.211415   5.228870   0.115548
     6  C    0.000138   0.017560   0.000110  -0.034382   0.115548   5.466328
     7  C    0.000155  -0.001515   0.000003   0.006405   0.014619  -0.045324
     8  C   -0.000000   0.000049  -0.000001  -0.000230  -0.003178   0.050964
     9  N   -0.000000  -0.000000   0.000000   0.000004   0.000054   0.016612
    10  C   -0.000001   0.000010   0.000000   0.000037   0.003224   0.019193
    11  O    0.000000  -0.000002   0.000000  -0.000023   0.002646   0.009705
    12  O   -0.000000   0.000001   0.000000  -0.000000   0.000058  -0.011229
    13  H    0.363044  -0.021064  -0.000329   0.004295   0.000407  -0.000118
    14  H    0.361816  -0.019236   0.003213  -0.003167   0.000217   0.001132
    15  H    0.003446  -0.023900   0.364898   0.001321   0.000473  -0.000099
    16  H    0.000093  -0.018660   0.361408   0.003039  -0.000487   0.000034
    17  H    0.004649  -0.030742  -0.001935   0.359593  -0.014672  -0.009109
    18  H    0.011425  -0.026462  -0.000177  -0.040402   0.435627  -0.044954
    19  H   -0.001013  -0.004206   0.000201  -0.049065   0.410520  -0.028549
    20  H    0.000086  -0.000394  -0.000158   0.005460  -0.053574   0.409973
    21  H    0.000038   0.000238  -0.000103  -0.000565  -0.041639   0.419491
    22  H   -0.000084   0.000163   0.000002   0.000388  -0.023862   0.012665
    23  H    0.000016  -0.000073  -0.000001  -0.000107  -0.007462  -0.051879
    24  H    0.000001  -0.000004  -0.000000  -0.000055   0.001277  -0.023086
    25  H    0.000000   0.000000  -0.000000  -0.000001   0.000131  -0.001997
    26  H   -0.000000   0.000000  -0.000000   0.000000  -0.000155  -0.000116
               7          8          9         10         11         12
     1  N    0.000155  -0.000000  -0.000000  -0.000001   0.000000  -0.000000
     2  C   -0.001515   0.000049  -0.000000   0.000010  -0.000002   0.000001
     3  N    0.000003  -0.000001   0.000000   0.000000   0.000000   0.000000
     4  N    0.006405  -0.000230   0.000004   0.000037  -0.000023  -0.000000
     5  C    0.014619  -0.003178   0.000054   0.003224   0.002646   0.000058
     6  C   -0.045324   0.050964   0.016612   0.019193   0.009705  -0.011229
     7  C    5.941154  -0.270043  -0.065085  -0.053255   0.002763   0.024511
     8  C   -0.270043   6.843166   0.118236  -0.097467  -0.255568  -0.260565
     9  N   -0.065085   0.118236   6.682113   0.001861   0.011379  -0.011187
    10  C   -0.053255  -0.097467   0.001861   4.953442   0.565776   0.549009
    11  O    0.002763  -0.255568   0.011379   0.565776   8.261438  -0.133857
    12  O    0.024511  -0.260565  -0.011187   0.549009  -0.133857   8.277613
    13  H   -0.000001  -0.000000  -0.000000   0.000000  -0.000000   0.000000
    14  H   -0.000014   0.000002   0.000000   0.000000   0.000000  -0.000000
    15  H    0.000008  -0.000001   0.000000   0.000000  -0.000000   0.000000
    16  H   -0.000001   0.000000  -0.000000   0.000000   0.000000   0.000000
    17  H    0.001095  -0.000081   0.000001   0.000028   0.000006  -0.000003
    18  H    0.006869  -0.001763  -0.000033   0.000137  -0.000031   0.000011
    19  H    0.000565   0.001355   0.000031  -0.000470   0.000006  -0.000099
    20  H   -0.029203   0.000357   0.000088  -0.007219   0.001641   0.000570
    21  H   -0.036155  -0.012293  -0.000568   0.016913  -0.001418  -0.000583
    22  H    0.329558   0.007139   0.012251   0.007260  -0.001633  -0.000968
    23  H    0.413761  -0.043093  -0.007179  -0.016610   0.001961   0.016950
    24  H    0.017854   0.271003  -0.029811  -0.030908   0.030819   0.014906
    25  H    0.024551  -0.108910   0.385260   0.021581   0.001087   0.002156
    26  H   -0.016596  -0.056793   0.350678  -0.003926   0.001982   0.028955
              13         14         15         16         17         18
     1  N    0.363044   0.361816   0.003446   0.000093   0.004649   0.011425
     2  C   -0.021064  -0.019236  -0.023900  -0.018660  -0.030742  -0.026462
     3  N   -0.000329   0.003213   0.364898   0.361408  -0.001935  -0.000177
     4  N    0.004295  -0.003167   0.001321   0.003039   0.359593  -0.040402
     5  C    0.000407   0.000217   0.000473  -0.000487  -0.014672   0.435627
     6  C   -0.000118   0.001132  -0.000099   0.000034  -0.009109  -0.044954
     7  C   -0.000001  -0.000014   0.000008  -0.000001   0.001095   0.006869
     8  C   -0.000000   0.000002  -0.000001   0.000000  -0.000081  -0.001763
     9  N   -0.000000   0.000000   0.000000  -0.000000   0.000001  -0.000033
    10  C    0.000000   0.000000   0.000000   0.000000   0.000028   0.000137
    11  O   -0.000000   0.000000  -0.000000   0.000000   0.000006  -0.000031
    12  O    0.000000  -0.000000   0.000000   0.000000  -0.000003   0.000011
    13  H    0.354075  -0.012760   0.000206   0.000324  -0.000189   0.000428
    14  H   -0.012760   0.348613  -0.000235   0.000245   0.000067  -0.000587
    15  H    0.000206  -0.000235   0.355037  -0.014425   0.000733  -0.000058
    16  H    0.000324   0.000245  -0.014425   0.355407   0.000168  -0.000048
    17  H   -0.000189   0.000067   0.000733   0.000168   0.365141   0.003613
    18  H    0.000428  -0.000587  -0.000058  -0.000048   0.003613   0.515176
    19  H   -0.000159  -0.000209   0.000013   0.000048   0.000583  -0.039760
    20  H   -0.000005  -0.000026   0.000010   0.000004  -0.000029  -0.007808
    21  H    0.000006   0.000002   0.000014  -0.000002   0.002689   0.006170
    22  H    0.000000   0.000007   0.000000   0.000000   0.000012   0.003387
    23  H   -0.000000  -0.000004  -0.000000  -0.000000   0.000014   0.000366
    24  H    0.000000  -0.000000  -0.000000  -0.000000   0.000002   0.000282
    25  H    0.000000   0.000000   0.000000   0.000000  -0.000000  -0.000001
    26  H    0.000000  -0.000000   0.000000  -0.000000  -0.000000   0.000009
              19         20         21         22         23         24
     1  N   -0.001013   0.000086   0.000038  -0.000084   0.000016   0.000001
     2  C   -0.004206  -0.000394   0.000238   0.000163  -0.000073  -0.000004
     3  N    0.000201  -0.000158  -0.000103   0.000002  -0.000001  -0.000000
     4  N   -0.049065   0.005460  -0.000565   0.000388  -0.000107  -0.000055
     5  C    0.410520  -0.053574  -0.041639  -0.023862  -0.007462   0.001277
     6  C   -0.028549   0.409973   0.419491   0.012665  -0.051879  -0.023086
     7  C    0.000565  -0.029203  -0.036155   0.329558   0.413761   0.017854
     8  C    0.001355   0.000357  -0.012293   0.007139  -0.043093   0.271003
     9  N    0.000031   0.000088  -0.000568   0.012251  -0.007179  -0.029811
    10  C   -0.000470  -0.007219   0.016913   0.007260  -0.016610  -0.030908
    11  O    0.000006   0.001641  -0.001418  -0.001633   0.001961   0.030819
    12  O   -0.000099   0.000570  -0.000583  -0.000968   0.016950   0.014906
    13  H   -0.000159  -0.000005   0.000006   0.000000  -0.000000   0.000000
    14  H   -0.000209  -0.000026   0.000002   0.000007  -0.000004  -0.000000
    15  H    0.000013   0.000010   0.000014   0.000000  -0.000000  -0.000000
    16  H    0.000048   0.000004  -0.000002   0.000000  -0.000000  -0.000000
    17  H    0.000583  -0.000029   0.002689   0.000012   0.000014   0.000002
    18  H   -0.039760  -0.007808   0.006170   0.003387   0.000366   0.000282
    19  H    0.525326   0.007279  -0.007230   0.000382   0.003807  -0.000142
    20  H    0.007279   0.541611  -0.028948  -0.005394   0.007439   0.005190
    21  H   -0.007230  -0.028948   0.524031   0.005713  -0.001992   0.001271
    22  H    0.000382  -0.005394   0.005713   0.562082  -0.027589  -0.012433
    23  H    0.003807   0.007439  -0.001992  -0.027589   0.555026   0.010028
    24  H   -0.000142   0.005190   0.001271  -0.012433   0.010028   0.586908
    25  H   -0.000002  -0.000010   0.000009  -0.000916  -0.000679  -0.005725
    26  H   -0.000010   0.000050   0.000097  -0.002712   0.010645   0.012096
              25         26
     1  N    0.000000  -0.000000
     2  C    0.000000   0.000000
     3  N   -0.000000  -0.000000
     4  N   -0.000001   0.000000
     5  C    0.000131  -0.000155
     6  C   -0.001997  -0.000116
     7  C    0.024551  -0.016596
     8  C   -0.108910  -0.056793
     9  N    0.385260   0.350678
    10  C    0.021581  -0.003926
    11  O    0.001087   0.001982
    12  O    0.002156   0.028955
    13  H    0.000000   0.000000
    14  H    0.000000  -0.000000
    15  H    0.000000   0.000000
    16  H    0.000000  -0.000000
    17  H   -0.000000  -0.000000
    18  H   -0.000001   0.000009
    19  H   -0.000002  -0.000010
    20  H   -0.000010   0.000050
    21  H    0.000009   0.000097
    22  H   -0.000916  -0.002712
    23  H   -0.000679   0.010645
    24  H   -0.005725   0.012096
    25  H    0.481781  -0.027272
    26  H   -0.027272   0.490809
 Mulliken charges:
               1
     1  N   -0.419334
     2  C    0.338214
     3  N   -0.397052
     4  N   -0.265880
     5  C   -0.236861
     6  C   -0.288610
     7  C   -0.266680
     8  C   -0.182284
     9  N   -0.464705
    10  C    0.071388
    11  O   -0.498679
    12  O   -0.496248
    13  H    0.311841
    14  H    0.320924
    15  H    0.312558
    16  H    0.312852
    17  H    0.318366
    18  H    0.178584
    19  H    0.180796
    20  H    0.153012
    21  H    0.154818
    22  H    0.134582
    23  H    0.136654
    24  H    0.150529
    25  H    0.228958
    26  H    0.212259
 Sum of Mulliken charges =  -0.00000
 Mulliken charges with hydrogens summed into heavy atoms:
               1
     1  N    0.213430
     2  C    0.338214
     3  N    0.228358
     4  N    0.052486
     5  C    0.122519
     6  C    0.019219
     7  C    0.004557
     8  C   -0.031755
     9  N   -0.023488
    10  C    0.071388
    11  O   -0.498679
    12  O   -0.496248
 Electronic spatial extent (au):  <R**2>=           3743.7169
 Charge=              0.0000 electrons
 Dipole moment (field-independent basis, Debye):
    X=            -30.8819    Y=             -5.1204    Z=             -1.6861  Tot=             31.3489
 Quadrupole moment (field-independent basis, Debye-Ang):
   XX=            -38.1919   YY=            -81.2152   ZZ=            -80.6493
   XY=            -19.0217   XZ=            -10.0263   YZ=             -6.6187
 Traceless Quadrupole moment (field-independent basis, Debye-Ang):
   XX=             28.4935   YY=            -14.5297   ZZ=            -13.9639
   XY=            -19.0217   XZ=            -10.0263   YZ=             -6.6187
 Octapole moment (field-independent basis, Debye-Ang**2):
  XXX=           -518.8170  YYY=             -5.9116  ZZZ=             -8.2176  XYY=           -116.2769
  XXY=            -45.0760  XXZ=            -37.1950  XZZ=            -28.8153  YZZ=             -7.6814
  YYZ=              9.3281  XYZ=              5.5943
 Hexadecapole moment (field-independent basis, Debye-Ang**3):
 XXXX=          -2243.6747 YYYY=           -628.9093 ZZZZ=           -234.5014 XXXY=           -227.5588
 XXXZ=           -154.0259 YYYX=            -46.4752 YYYZ=            -27.9380 ZZZX=            -34.6551
 ZZZY=            -14.7216 XXYY=           -747.5124 XXZZ=           -793.2528 YYZZ=           -138.4563
 XXYZ=           -106.3845 YYXZ=             31.6414 ZZXY=            -23.2848
 N-N= 7.061643902300D+02 E-N=-2.830819949012D+03  KE= 6.039585095037D+02
 Unable to Open any file for archive entry.
 1\1\GINC-TCN1636\SP\RBP86\TZVP\C6H14N4O2\ELENAA\22-Feb-2021\0\\# BP86/
 TZVP SCRF=COSMORS geom=CHECKPOINT guess=CHECKPOINT\\COSMO-file for #OD
 KSFYDXXFIFQN-BYPYZUCNSA-N\\0,1\N,0,-4.8093932127,-1.8327180543,2.82347
 26359\C,0,-5.1416169763,-0.5899021861,3.2102639111\N,0,-6.3991136668,-
 0.3299680148,3.6107379383\N,0,-4.2343646247,0.3942185142,3.172192157\C
 ,0,-2.8833055542,0.2807729994,2.6004480117\C,0,-2.2936676567,1.6701796
 084,2.3550431172\C,0,-0.8721540307,1.5850474518,1.7886868507\C,0,-0.24
 40705608,2.9553497918,1.4762619582\N,0,1.1002942799,2.7299824458,0.891
 8033821\C,0,-0.2275855463,3.8295302734,2.7729319252\O,0,-1.142470326,4
 .7012473526,2.8974392199\O,0,0.6923737429,3.5659583794,3.610015477\H,0
 ,-5.5124640794,-2.5596099872,2.7439956704\H,0,-3.8390801012,-2.1173055
 715,2.745587176\H,0,-6.730214652,0.6226636591,3.7190439586\H,0,-7.0549
 241175,-1.0787155193,3.804529556\H,0,-4.4681502256,1.26877229,3.637009
 7329\H,0,-2.9515712688,-0.2716940084,1.6495658671\H,0,-2.2318164196,-0
 .2897305144,3.2852101182\H,0,-2.9438714755,2.223525404,1.6571316414\H,
 0,-2.281734643,2.2376683112,3.30036356\H,0,-0.8712296832,0.984465514,0
 .8629598028\H,0,-0.2171592773,1.0661542817,2.5116263598\H,0,-0.8637849
 234,3.4681165047,0.7223240564\H,0,1.4607606253,3.6326141224,0.56356094
 41\H,0,1.7117643738,2.4860869523,1.6827349718\\Version=ES64L-G16RevC.0
 1\State=1-A\HF=-606.8207884\RMSD=4.957e-09\Dipole=-8.9549048,-8.480585
 4,0.0834331\Quadrupole=15.7405932,-5.3974348,-10.3431583,8.82871,-14.1
 829049,-12.0567621\PG=C01 [X(C6H14N4O2)]\\@
 The archive entry for this job was punched.


 There ain't no surer way to find out whether you
 like people or hate them than to travel with them.
                                     -- Mark Twain
 Job cpu time:       0 days  0 hours  8 minutes 36.0 seconds.
 Elapsed time:       0 days  0 hours  0 minutes 16.8 seconds.
 File lengths (MBytes):  RWF=     78 Int=      0 D2E=      0 Chk=     12 Scr=      1
 Normal termination of Gaussian 16 at Mon Feb 22 21:38:01 2021.
