 Entering Gaussian System, Link 0=g16
 Input=OEYIOHPDSNJKLS-UHFFFAOYSA-N.gjf
 Output=OEYIOHPDSNJKLS-UHFFFAOYSA-N.log
 Initial command:
 /sw/arch/RedHatEnterpriseServer7/EB_production/2019/software/Gaussian/g16.c01/l1.exe "/scratch-local/elenaa.9715943/Gau-5709.inp" -scrdir="/scratch-local/elenaa.9715943/"
 Entering Link 1 = /sw/arch/RedHatEnterpriseServer7/EB_production/2019/software/Gaussian/g16.c01/l1.exe PID=      5713.
  
 Copyright (c) 1988-2019, Gaussian, Inc.  All Rights Reserved.
  
 This is part of the Gaussian(R) 16 program.  It is based on
 the Gaussian(R) 09 system (copyright 2009, Gaussian, Inc.),
 the Gaussian(R) 03 system (copyright 2003, Gaussian, Inc.),
 the Gaussian(R) 98 system (copyright 1998, Gaussian, Inc.),
 the Gaussian(R) 94 system (copyright 1995, Gaussian, Inc.),
 the Gaussian 92(TM) system (copyright 1992, Gaussian, Inc.),
 the Gaussian 90(TM) system (copyright 1990, Gaussian, Inc.),
 the Gaussian 88(TM) system (copyright 1988, Gaussian, Inc.),
 the Gaussian 86(TM) system (copyright 1986, Carnegie Mellon
 University), and the Gaussian 82(TM) system (copyright 1983,
 Carnegie Mellon University). Gaussian is a federally registered
 trademark of Gaussian, Inc.
  
 This software contains proprietary and confidential information,
 including trade secrets, belonging to Gaussian, Inc.
  
 This software is provided under written license and may be
 used, copied, transmitted, or stored only in accord with that
 written license.
  
 The following legend is applicable only to US Government
 contracts under FAR:
  
                    RESTRICTED RIGHTS LEGEND
  
 Use, reproduction and disclosure by the US Government is
 subject to restrictions as set forth in subparagraphs (a)
 and (c) of the Commercial Computer Software - Restricted
 Rights clause in FAR 52.227-19.
  
 Gaussian, Inc.
 340 Quinnipiac St., Bldg. 40, Wallingford CT 06492
  
  
 ---------------------------------------------------------------
 Warning -- This program may not be used in any manner that
 competes with the business of Gaussian, Inc. or will provide
 assistance to any competitor of Gaussian, Inc.  The licensee
 of this program is prohibited from giving any competitor of
 Gaussian, Inc. access to this program.  By using this program,
 the user acknowledges that Gaussian, Inc. is engaged in the
 business of creating and licensing software in the field of
 computational chemistry and represents and warrants to the
 licensee that it is not a competitor of Gaussian, Inc. and that
 it will not use this program in any manner prohibited above.
 ---------------------------------------------------------------
  

 Cite this work as:
 Gaussian 16, Revision C.01,
 M. J. Frisch, G. W. Trucks, H. B. Schlegel, G. E. Scuseria, 
 M. A. Robb, J. R. Cheeseman, G. Scalmani, V. Barone, 
 G. A. Petersson, H. Nakatsuji, X. Li, M. Caricato, A. V. Marenich, 
 J. Bloino, B. G. Janesko, R. Gomperts, B. Mennucci, H. P. Hratchian, 
 J. V. Ortiz, A. F. Izmaylov, J. L. Sonnenberg, D. Williams-Young, 
 F. Ding, F. Lipparini, F. Egidi, J. Goings, B. Peng, A. Petrone, 
 T. Henderson, D. Ranasinghe, V. G. Zakrzewski, J. Gao, N. Rega, 
 G. Zheng, W. Liang, M. Hada, M. Ehara, K. Toyota, R. Fukuda, 
 J. Hasegawa, M. Ishida, T. Nakajima, Y. Honda, O. Kitao, H. Nakai, 
 T. Vreven, K. Throssell, J. A. Montgomery, Jr., J. E. Peralta, 
 F. Ogliaro, M. J. Bearpark, J. J. Heyd, E. N. Brothers, K. N. Kudin, 
 V. N. Staroverov, T. A. Keith, R. Kobayashi, J. Normand, 
 K. Raghavachari, A. P. Rendell, J. C. Burant, S. S. Iyengar, 
 J. Tomasi, M. Cossi, J. M. Millam, M. Klene, C. Adamo, R. Cammi, 
 J. W. Ochterski, R. L. Martin, K. Morokuma, O. Farkas, 
 J. B. Foresman, and D. J. Fox, Gaussian, Inc., Wallingford CT, 2019.
 
 ******************************************
 Gaussian 16:  ES64L-G16RevC.01  3-Jul-2019
                23-Feb-2021 
 ******************************************
 %chk=OEYIOHPDSNJKLS-UHFFFAOYSA-N.chk
 %NProcShared=32
 Will use up to   32 processors via shared memory.
 -------------------------------------------------------------
 #P BP86/TZVP EmpiricalDispersion=GD3 SCRF=(Solvent=Water) Opt
 -------------------------------------------------------------
 1/18=20,19=15,26=3,38=1/1,3;
 2/9=110,12=2,17=6,18=5,40=1/2;
 3/5=19,7=101,11=2,25=1,30=1,70=2201,71=1,72=1,74=404,124=31/1,2,3;
 4//1;
 5/5=2,38=5,53=1/2;
 6/7=2,8=2,9=2,10=2,28=1/1;
 7//1,2,3,16;
 1/18=20,19=15,26=3/3(2);
 2/9=110/2;
 99//99;
 2/9=110/2;
 3/5=19,7=101,11=2,25=1,30=1,70=2205,71=1,72=1,74=404,124=31/1,2,3;
 4/5=5,16=3,69=1/1;
 5/5=2,38=5,53=1/2;
 7//1,2,3,16;
 1/18=20,19=15,26=3/3(-5);
 2/9=110/2;
 6/7=2,8=2,9=2,10=2,19=2,28=1/1;
 99/9=1/99;
 Leave Link    1 at Tue Feb 23 00:11:08 2021, MaxMem=           0 cpu:              10.1 elap:               0.4
 (Enter /sw/arch/RedHatEnterpriseServer7/EB_production/2019/software/Gaussian/g16.c01/l101.exe)
 -------------------------------------
 Particle #OEYIOHPDSNJKLS-UHFFFAOYSA-N
 -------------------------------------
 Symbolic Z-matrix:
 Charge =  1 Multiplicity = 1
 C                    -1.39431  -0.43255  -3.05729 
 N                    -1.93332   0.23871  -1.81648 
 C                    -2.8019    1.40155  -2.24967 
 C                    -2.79943  -0.73607  -1.05465 
 C                    -0.8049    0.77311  -0.94374 
 C                     0.23192  -0.23336  -0.36881 
 O                     1.1987    0.45945   0.41452 
 H                    -0.82413  -1.33255  -2.81673 
 H                    -0.73639   0.23695  -3.61918 
 H                    -2.20131  -0.7407   -3.72882 
 H                    -3.63239   1.07413  -2.882 
 H                    -3.23593   1.92026  -1.39029 
 H                    -2.23084   2.13737  -2.82277 
 H                    -2.25065  -1.64068  -0.78361 
 H                    -3.18336  -0.29161  -0.13168 
 H                    -3.66071  -1.05594  -1.64884 
 H                    -1.23229   1.30016  -0.08192 
 H                    -0.23043   1.51657  -1.50981 
 H                    -0.25156  -0.96866   0.27613 
 H                     0.76307  -0.7495   -1.16996 
 H                     1.80844  -0.23824   0.7366 
 
 ITRead=  0  0  0  0  0  0  0  0  0  0  0  0  0  0  0  0  0  0  0  0
 ITRead=  0
 MicOpt= -1 -1 -1 -1 -1 -1 -1 -1 -1 -1 -1 -1 -1 -1 -1 -1 -1 -1 -1 -1
 MicOpt= -1
 NAtoms=     21 NQM=       21 NQMF=       0 NMMI=      0 NMMIF=      0
                NMic=       0 NMicF=      0.
                    Isotopes and Nuclear Properties:
 (Nuclear quadrupole moments (NQMom) in fm**2, nuclear magnetic moments (NMagM)
  in nuclear magnetons)

  Atom         1           2           3           4           5           6           7           8           9          10
 IAtWgt=          12          14          12          12          12          12          16           1           1           1
 AtmWgt=  12.0000000  14.0030740  12.0000000  12.0000000  12.0000000  12.0000000  15.9949146   1.0078250   1.0078250   1.0078250
 NucSpn=           0           2           0           0           0           0           0           1           1           1
 AtZEff=  -0.0000000  -0.0000000  -0.0000000  -0.0000000  -0.0000000  -0.0000000  -0.0000000  -0.0000000  -0.0000000  -0.0000000
 NQMom=    0.0000000   2.0440000   0.0000000   0.0000000   0.0000000   0.0000000   0.0000000   0.0000000   0.0000000   0.0000000
 NMagM=    0.0000000   0.4037610   0.0000000   0.0000000   0.0000000   0.0000000   0.0000000   2.7928460   2.7928460   2.7928460
 AtZNuc=   6.0000000   7.0000000   6.0000000   6.0000000   6.0000000   6.0000000   8.0000000   1.0000000   1.0000000   1.0000000

  Atom        11          12          13          14          15          16          17          18          19          20
 IAtWgt=           1           1           1           1           1           1           1           1           1           1
 AtmWgt=   1.0078250   1.0078250   1.0078250   1.0078250   1.0078250   1.0078250   1.0078250   1.0078250   1.0078250   1.0078250
 NucSpn=           1           1           1           1           1           1           1           1           1           1
 AtZEff=  -0.0000000  -0.0000000  -0.0000000  -0.0000000  -0.0000000  -0.0000000  -0.0000000  -0.0000000  -0.0000000  -0.0000000
 NQMom=    0.0000000   0.0000000   0.0000000   0.0000000   0.0000000   0.0000000   0.0000000   0.0000000   0.0000000   0.0000000
 NMagM=    2.7928460   2.7928460   2.7928460   2.7928460   2.7928460   2.7928460   2.7928460   2.7928460   2.7928460   2.7928460
 AtZNuc=   1.0000000   1.0000000   1.0000000   1.0000000   1.0000000   1.0000000   1.0000000   1.0000000   1.0000000   1.0000000

  Atom        21
 IAtWgt=           1
 AtmWgt=   1.0078250
 NucSpn=           1
 AtZEff=  -0.0000000
 NQMom=    0.0000000
 NMagM=    2.7928460
 AtZNuc=   1.0000000
 Leave Link  101 at Tue Feb 23 00:11:08 2021, MaxMem=   104857600 cpu:               2.8 elap:               0.1
 (Enter /sw/arch/RedHatEnterpriseServer7/EB_production/2019/software/Gaussian/g16.c01/l103.exe)

 GradGradGradGradGradGradGradGradGradGradGradGradGradGradGradGradGradGrad
 Berny optimization.
 Initialization pass.
                           ----------------------------
                           !    Initial Parameters    !
                           ! (Angstroms and Degrees)  !
 --------------------------                            --------------------------
 ! Name  Definition              Value          Derivative Info.                !
 --------------------------------------------------------------------------------
 ! R1    R(1,2)                  1.5102         estimate D2E/DX2                !
 ! R2    R(1,8)                  1.0922         estimate D2E/DX2                !
 ! R3    R(1,9)                  1.094          estimate D2E/DX2                !
 ! R4    R(1,10)                 1.0941         estimate D2E/DX2                !
 ! R5    R(2,3)                  1.5147         estimate D2E/DX2                !
 ! R6    R(2,4)                  1.5102         estimate D2E/DX2                !
 ! R7    R(2,5)                  1.5233         estimate D2E/DX2                !
 ! R8    R(3,11)                 1.094          estimate D2E/DX2                !
 ! R9    R(3,12)                 1.0936         estimate D2E/DX2                !
 ! R10   R(3,13)                 1.0936         estimate D2E/DX2                !
 ! R11   R(4,14)                 1.0922         estimate D2E/DX2                !
 ! R12   R(4,15)                 1.094          estimate D2E/DX2                !
 ! R13   R(4,16)                 1.0942         estimate D2E/DX2                !
 ! R14   R(5,6)                  1.5552         estimate D2E/DX2                !
 ! R15   R(5,17)                 1.0969         estimate D2E/DX2                !
 ! R16   R(5,18)                 1.0969         estimate D2E/DX2                !
 ! R17   R(6,7)                  1.4242         estimate D2E/DX2                !
 ! R18   R(6,19)                 1.091          estimate D2E/DX2                !
 ! R19   R(6,20)                 1.091          estimate D2E/DX2                !
 ! R20   R(7,21)                 0.981          estimate D2E/DX2                !
 ! A1    A(2,1,8)              111.8152         estimate D2E/DX2                !
 ! A2    A(2,1,9)              111.3845         estimate D2E/DX2                !
 ! A3    A(2,1,10)             111.4816         estimate D2E/DX2                !
 ! A4    A(8,1,9)              107.6647         estimate D2E/DX2                !
 ! A5    A(8,1,10)             106.7465         estimate D2E/DX2                !
 ! A6    A(9,1,10)             107.4991         estimate D2E/DX2                !
 ! A7    A(1,2,3)              108.1149         estimate D2E/DX2                !
 ! A8    A(1,2,4)              109.4061         estimate D2E/DX2                !
 ! A9    A(1,2,5)              111.2388         estimate D2E/DX2                !
 ! A10   A(3,2,4)              108.1151         estimate D2E/DX2                !
 ! A11   A(3,2,5)              108.6209         estimate D2E/DX2                !
 ! A12   A(4,2,5)              111.2383         estimate D2E/DX2                !
 ! A13   A(2,3,11)             111.769          estimate D2E/DX2                !
 ! A14   A(2,3,12)             111.5294         estimate D2E/DX2                !
 ! A15   A(2,3,13)             111.5293         estimate D2E/DX2                !
 ! A16   A(11,3,12)            107.1506         estimate D2E/DX2                !
 ! A17   A(11,3,13)            107.1507         estimate D2E/DX2                !
 ! A18   A(12,3,13)            107.4524         estimate D2E/DX2                !
 ! A19   A(2,4,14)             111.8155         estimate D2E/DX2                !
 ! A20   A(2,4,15)             111.3846         estimate D2E/DX2                !
 ! A21   A(2,4,16)             111.4808         estimate D2E/DX2                !
 ! A22   A(14,4,15)            107.6653         estimate D2E/DX2                !
 ! A23   A(14,4,16)            106.7467         estimate D2E/DX2                !
 ! A24   A(15,4,16)            107.4986         estimate D2E/DX2                !
 ! A25   A(2,5,6)              118.5953         estimate D2E/DX2                !
 ! A26   A(2,5,17)             109.2728         estimate D2E/DX2                !
 ! A27   A(2,5,18)             109.2724         estimate D2E/DX2                !
 ! A28   A(6,5,17)             106.2764         estimate D2E/DX2                !
 ! A29   A(6,5,18)             106.2763         estimate D2E/DX2                !
 ! A30   A(17,5,18)            106.4906         estimate D2E/DX2                !
 ! A31   A(5,6,7)              109.9432         estimate D2E/DX2                !
 ! A32   A(5,6,19)             111.0548         estimate D2E/DX2                !
 ! A33   A(5,6,20)             111.0552         estimate D2E/DX2                !
 ! A34   A(7,6,19)             107.6701         estimate D2E/DX2                !
 ! A35   A(7,6,20)             107.6703         estimate D2E/DX2                !
 ! A36   A(19,6,20)            109.3277         estimate D2E/DX2                !
 ! A37   A(6,7,21)             104.8654         estimate D2E/DX2                !
 ! D1    D(8,1,2,3)           -175.288          estimate D2E/DX2                !
 ! D2    D(8,1,2,4)            -57.766          estimate D2E/DX2                !
 ! D3    D(8,1,2,5)             65.5303         estimate D2E/DX2                !
 ! D4    D(9,1,2,3)             64.1971         estimate D2E/DX2                !
 ! D5    D(9,1,2,4)           -178.2809         estimate D2E/DX2                !
 ! D6    D(9,1,2,5)            -54.9846         estimate D2E/DX2                !
 ! D7    D(10,1,2,3)           -55.8779         estimate D2E/DX2                !
 ! D8    D(10,1,2,4)            61.6442         estimate D2E/DX2                !
 ! D9    D(10,1,2,5)          -175.0596         estimate D2E/DX2                !
 ! D10   D(1,2,3,11)            59.1743         estimate D2E/DX2                !
 ! D11   D(1,2,3,12)           179.1007         estimate D2E/DX2                !
 ! D12   D(1,2,3,13)           -60.7522         estimate D2E/DX2                !
 ! D13   D(4,2,3,11)           -59.1747         estimate D2E/DX2                !
 ! D14   D(4,2,3,12)            60.7517         estimate D2E/DX2                !
 ! D15   D(4,2,3,13)          -179.1011         estimate D2E/DX2                !
 ! D16   D(5,2,3,11)           180.0            estimate D2E/DX2                !
 ! D17   D(5,2,3,12)           -60.0736         estimate D2E/DX2                !
 ! D18   D(5,2,3,13)            60.0735         estimate D2E/DX2                !
 ! D19   D(1,2,4,14)            57.766          estimate D2E/DX2                !
 ! D20   D(1,2,4,15)           178.282          estimate D2E/DX2                !
 ! D21   D(1,2,4,16)           -61.6441         estimate D2E/DX2                !
 ! D22   D(3,2,4,14)           175.2878         estimate D2E/DX2                !
 ! D23   D(3,2,4,15)           -64.1962         estimate D2E/DX2                !
 ! D24   D(3,2,4,16)            55.8778         estimate D2E/DX2                !
 ! D25   D(5,2,4,14)           -65.5306         estimate D2E/DX2                !
 ! D26   D(5,2,4,15)            54.9855         estimate D2E/DX2                !
 ! D27   D(5,2,4,16)           175.0594         estimate D2E/DX2                !
 ! D28   D(1,2,5,6)            -61.1209         estimate D2E/DX2                !
 ! D29   D(1,2,5,17)           176.9571         estimate D2E/DX2                !
 ! D30   D(1,2,5,18)            60.8006         estimate D2E/DX2                !
 ! D31   D(3,2,5,6)           -179.9999         estimate D2E/DX2                !
 ! D32   D(3,2,5,17)            58.0781         estimate D2E/DX2                !
 ! D33   D(3,2,5,18)           -58.0783         estimate D2E/DX2                !
 ! D34   D(4,2,5,6)             61.1211         estimate D2E/DX2                !
 ! D35   D(4,2,5,17)           -60.8009         estimate D2E/DX2                !
 ! D36   D(4,2,5,18)          -176.9574         estimate D2E/DX2                !
 ! D37   D(2,5,6,7)            179.9998         estimate D2E/DX2                !
 ! D38   D(2,5,6,19)           -60.9431         estimate D2E/DX2                !
 ! D39   D(2,5,6,20)            60.9421         estimate D2E/DX2                !
 ! D40   D(17,5,6,7)           -56.5801         estimate D2E/DX2                !
 ! D41   D(17,5,6,19)           62.4771         estimate D2E/DX2                !
 ! D42   D(17,5,6,20)         -175.6378         estimate D2E/DX2                !
 ! D43   D(18,5,6,7)            56.5802         estimate D2E/DX2                !
 ! D44   D(18,5,6,19)          175.6373         estimate D2E/DX2                !
 ! D45   D(18,5,6,20)          -62.4775         estimate D2E/DX2                !
 ! D46   D(5,6,7,21)           179.9997         estimate D2E/DX2                !
 ! D47   D(19,6,7,21)           58.889          estimate D2E/DX2                !
 ! D48   D(20,6,7,21)          -58.8889         estimate D2E/DX2                !
 --------------------------------------------------------------------------------
 Trust Radius=3.00D-01 FncErr=1.00D-07 GrdErr=1.00D-06 EigMax=2.50D+02 EigMin=1.00D-04
 Number of steps in this run=    115 maximum allowed number of steps=    126.
 GradGradGradGradGradGradGradGradGradGradGradGradGradGradGradGradGradGrad

 Leave Link  103 at Tue Feb 23 00:11:08 2021, MaxMem=   104857600 cpu:               0.3 elap:               0.0
 (Enter /sw/arch/RedHatEnterpriseServer7/EB_production/2019/software/Gaussian/g16.c01/l202.exe)
                          Input orientation:                          
 ---------------------------------------------------------------------
 Center     Atomic      Atomic             Coordinates (Angstroms)
 Number     Number       Type             X           Y           Z
 ---------------------------------------------------------------------
      1          6           0       -1.394310   -0.432550   -3.057290
      2          7           0       -1.933320    0.238710   -1.816480
      3          6           0       -2.801900    1.401550   -2.249670
      4          6           0       -2.799430   -0.736070   -1.054650
      5          6           0       -0.804900    0.773110   -0.943740
      6          6           0        0.231920   -0.233360   -0.368810
      7          8           0        1.198700    0.459450    0.414520
      8          1           0       -0.824130   -1.332550   -2.816730
      9          1           0       -0.736390    0.236950   -3.619180
     10          1           0       -2.201310   -0.740700   -3.728820
     11          1           0       -3.632390    1.074130   -2.882000
     12          1           0       -3.235930    1.920260   -1.390290
     13          1           0       -2.230840    2.137370   -2.822770
     14          1           0       -2.250650   -1.640680   -0.783610
     15          1           0       -3.183360   -0.291610   -0.131680
     16          1           0       -3.660710   -1.055940   -1.648840
     17          1           0       -1.232290    1.300160   -0.081920
     18          1           0       -0.230430    1.516570   -1.509810
     19          1           0       -0.251560   -0.968660    0.276130
     20          1           0        0.763070   -0.749500   -1.169960
     21          1           0        1.808440   -0.238240    0.736600
 ---------------------------------------------------------------------
                    Distance matrix (angstroms):
                    1          2          3          4          5
     1  C    0.000000
     2  N    1.510209   0.000000
     3  C    2.448976   1.514689   0.000000
     4  C    2.465168   1.510208   2.448979   0.000000
     5  C    2.503620   1.523348   2.467468   2.503612   0.000000
     6  C    3.148369   2.647048   3.926147   3.148361   1.555160
     7  O    4.424119   3.851706   4.897985   4.424113   2.440833
     8  H    1.092234   2.167870   3.421759   2.713397   2.818203
     9  H    1.093988   2.163879   2.738281   3.432159   2.729495
    10  H    1.094147   2.165204   2.671671   2.740247   3.463849
    11  H    2.703667   2.172579   1.093965   2.703674   3.441245
    12  H    3.421428   2.169341   1.093607   2.712798   2.724934
    13  H    2.712798   2.169343   1.093611   3.421433   2.724934
    14  H    2.713396   2.167862   3.421750   1.092219   2.818194
    15  H    3.432165   2.163883   2.738281   1.093993   2.729495
    16  H    2.740240   2.165202   2.671668   1.094158   3.463848
    17  H    3.446935   2.151004   2.678264   2.747429   1.096895
    18  H    2.747431   2.151001   2.678261   3.446929   1.096897
    19  H    3.564405   2.943650   4.301371   2.883872   2.197278
    20  H    2.883879   2.943648   4.301372   3.564391   2.197282
    21  H    4.968799   4.554829   5.732535   4.968790   3.267402
                    6          7          8          9         10
     6  C    0.000000
     7  O    1.424168   0.000000
     8  H    2.883708   4.212372   0.000000
     9  H    3.423992   4.479377   1.764923   0.000000
    10  H    4.179434   5.492513   1.754656   1.764599   0.000000
    11  H    4.791508   5.880842   3.699012   3.103405   2.461443
    12  H    4.208026   5.005722   4.293283   3.748224   3.690511
    13  H    4.208024   5.005717   3.744224   2.545436   3.017463
    14  H    2.883706   4.212372   2.502695   3.722759   3.080042
    15  H    3.423998   4.479383   3.722770   4.292982   3.755732
    16  H    4.179436   5.492516   3.080043   3.755723   2.560379
    17  H    2.139603   2.619725   3.817976   3.726733   4.289987
    18  H    2.139604   2.619725   3.190298   2.518504   3.728759
    19  H    1.091039   2.040075   3.166392   4.106336   4.460170
    20  H    1.091037   2.040076   2.360297   3.036469   3.916043
    21  H    1.925453   0.980964   4.555666   5.067029   6.022503
                   11         12         13         14         15
    11  H    0.000000
    12  H    1.760203   0.000000
    13  H    1.760207   1.763333   0.000000
    14  H    3.699005   3.744213   4.293277   0.000000
    15  H    3.103407   2.545433   3.748227   1.764922   0.000000
    16  H    2.461439   3.017458   3.690511   1.754655   1.764607
    17  H    3.694864   2.472029   3.034845   3.190292   2.518508
    18  H    3.694860   3.034844   2.472023   3.817968   3.726735
    19  H    5.057350   4.475408   4.813331   2.360301   3.036471
    20  H    5.057349   4.813332   4.475410   3.166382   4.106336
    21  H    6.664774   5.884594   5.884592   4.555665   5.067033
                   16         17         18         19         20
    16  H    0.000000
    17  H    3.728762   0.000000
    18  H    4.289983   1.757676   0.000000
    19  H    3.916048   2.497514   3.060457   0.000000
    20  H    4.460164   3.060457   2.497521   1.780079   0.000000
    21  H    6.022504   3.504667   3.504669   2.233640   2.233642
                   21
    21  H    0.000000
 Stoichiometry    C5H14NO(1+)
 Framework group  C1[X(C5H14NO)]
 Deg. of freedom    57
 Full point group                 C1      NOp   1
 Largest Abelian subgroup         C1      NOp   1
 Largest concise Abelian subgroup C1      NOp   1
                         Standard orientation:                         
 ---------------------------------------------------------------------
 Center     Atomic      Atomic             Coordinates (Angstroms)
 Number     Number       Type             X           Y           Z
 ---------------------------------------------------------------------
      1          6           0       -1.144897   -0.815814   -1.232578
      2          7           0       -0.899794    0.021686    0.000000
      3          6           0       -1.896165    1.162531   -0.000008
      4          6           0       -1.144888   -0.815797    1.232590
      5          6           0        0.507476    0.604938   -0.000002
      6          6           0        1.717890   -0.371493    0.000002
      7          8           0        2.936536    0.365499   -0.000006
      8          1           0       -0.511553   -1.705476   -1.251335
      9          1           0       -0.946892   -0.248034   -2.146486
     10          1           0       -2.180690   -1.165134   -1.280183
     11          1           0       -2.928247    0.799811   -0.000007
     12          1           0       -1.777906    1.798664    0.881653
     13          1           0       -1.777902    1.798654   -0.881680
     14          1           0       -0.511556   -1.705448    1.251360
     15          1           0       -0.946894   -0.247997    2.146496
     16          1           0       -2.180693   -1.165114    1.280196
     17          1           0        0.632314    1.249336    0.878829
     18          1           0        0.632310    1.249322   -0.878847
     19          1           0        1.712477   -1.002485    0.890051
     20          1           0        1.712474   -1.002507   -0.890028
     21          1           0        3.642532   -0.315573    0.000003
 ---------------------------------------------------------------------
 Rotational constants (GHZ):           4.2694765           1.3803532           1.3635506
 Leave Link  202 at Tue Feb 23 00:11:08 2021, MaxMem=   104857600 cpu:               0.7 elap:               0.1
 (Enter /sw/arch/RedHatEnterpriseServer7/EB_production/2019/software/Gaussian/g16.c01/l301.exe)
 Standard basis: TZVP (5D, 7F)
 Ernie: Thresh=  0.10000D-02 Tol=  0.10000D-05 Strict=F.
 There are   224 symmetry adapted cartesian basis functions of A   symmetry.
 There are   217 symmetry adapted basis functions of A   symmetry.
   217 basis functions,   357 primitive gaussians,   224 cartesian basis functions
    29 alpha electrons       29 beta electrons
       nuclear repulsion energy       349.4535093282 Hartrees.
 IExCor=  404 DFT=T Ex=B Corr=P86 ExCW=0 ScaHFX=  0.000000
 ScaDFX=  1.000000  1.000000  1.000000  1.000000 ScalE2=  1.000000  1.000000
 IRadAn=      5 IRanWt=     -1 IRanGd=            0 ICorTp=0 IEmpDi=131
 NAtoms=   21 NActive=   21 NUniq=   21 SFac= 1.00D+00 NAtFMM=   60 NAOKFM=F Big=F
 Integral buffers will be    131072 words long.
 Raffenetti 2 integral format.
 Two-electron integral symmetry is turned on.
 R6Disp:  Grimme-D3 Dispersion energy=       -0.0206431004 Hartrees.
 Nuclear repulsion after empirical dispersion term =      349.4328662279 Hartrees.
 ------------------------------------------------------------------------------
 Polarizable Continuum Model (PCM)
 =================================
 Model                : PCM.
 Atomic radii         : UFF (Universal Force Field).
 Polarization charges : Total charges.
 Charge compensation  : None.
 Solution method      : On-the-fly selection.
 Cavity type          : Scaled VdW (van der Waals Surface) (Alpha=1.100).
 Cavity algorithm     : GePol (No added spheres)
                        Default sphere list used, NSphG=   21.
                        Lebedev-Laikov grids with approx.  5.0 points / Ang**2.
                        Smoothing algorithm: York/Karplus (Gamma=1.0000).
                        Polarization charges: spherical gaussians, with
                                              point-specific exponents (IZeta= 3).
                        Self-potential: point-specific (ISelfS= 7).
                        Self-field    : sphere-specific E.n sum rule (ISelfD= 2).
 1st derivatives      : Analytical E(r).r(x)/FMM algorithm (CHGder, D1EAlg=3).
                        Cavity 1st derivative terms included.
 Solvent              : Water, Eps=  78.355300 Eps(inf)=   1.777849
 ------------------------------------------------------------------------------
 GePol: Number of generator spheres                  =      21
 GePol: Total number of spheres                      =      21
 GePol: Number of exposed spheres                    =      20 ( 95.24%)
 GePol: Number of points                             =    1420
 GePol: Average weight of points                     =       0.13
 GePol: Minimum weight of points                     =   0.28D-10
 GePol: Maximum weight of points                     =    0.20577
 GePol: Number of points with low weight             =      78
 GePol: Fraction of low-weight points (<1% of avg)   =       5.49%
 GePol: Cavity surface area                          =    191.636 Ang**2
 GePol: Cavity volume                                =    189.358 Ang**3
 Leave Link  301 at Tue Feb 23 00:11:09 2021, MaxMem=   104857600 cpu:               3.6 elap:               0.2
 (Enter /sw/arch/RedHatEnterpriseServer7/EB_production/2019/software/Gaussian/g16.c01/l302.exe)
 NPDir=0 NMtPBC=     1 NCelOv=     1 NCel=       1 NClECP=     1 NCelD=      1
         NCelK=      1 NCelE2=     1 NClLst=     1 CellRange=     0.0.
 One-electron integrals computed using PRISM.
 One-electron integral symmetry used in STVInt
 PrsmSu:  requested number of processors reduced to:  29 ShMem   1 Linda.
 NBasis=   217 RedAO= T EigKep=  3.38D-04  NBF=   217
 NBsUse=   217 1.00D-06 EigRej= -1.00D+00 NBFU=   217
 Precomputing XC quadrature grid using
 IXCGrd= 4 IRadAn=           5 IRanWt=          -1 IRanGd=           0 AccXCQ= 0.00D+00.
 Generated NRdTot=       0 NPtTot=           0 NUsed=           0 NTot=          32
 NSgBfM=   223   223   223   223   223 MxSgAt=    21 MxSgA2=    21.
 Leave Link  302 at Tue Feb 23 00:11:09 2021, MaxMem=   104857600 cpu:               6.2 elap:               0.2
 (Enter /sw/arch/RedHatEnterpriseServer7/EB_production/2019/software/Gaussian/g16.c01/l303.exe)
 DipDrv:  MaxL=1.
 Leave Link  303 at Tue Feb 23 00:11:09 2021, MaxMem=   104857600 cpu:               1.8 elap:               0.1
 (Enter /sw/arch/RedHatEnterpriseServer7/EB_production/2019/software/Gaussian/g16.c01/l401.exe)
 ExpMin= 9.52D-02 ExpMax= 2.70D+04 ExpMxC= 9.22D+02 IAcc=3 IRadAn=         5 AccDes= 0.00D+00
 Harris functional with IExCor=  404 and IRadAn=       5 diagonalized for initial guess.
 HarFok:  IExCor=  404 AccDes= 0.00D+00 IRadAn=         5 IDoV= 1 UseB2=F ITyADJ=14
 ICtDFT=  3500011 ScaDFX=  1.000000  1.000000  1.000000  1.000000
 FoFCou: FMM=F IPFlag=           0 FMFlag=      100000 FMFlg1=           0
         NFxFlg=           0 DoJE=T BraDBF=F KetDBF=T FulRan=T
         wScrn=  0.000000 ICntrl=       500 IOpCl=  0 I1Cent=   200000004 NGrid=           0
         NMat0=    1 NMatS0=      1 NMatT0=    0 NMatD0=    1 NMtDS0=    0 NMtDT0=    0
 Petite list used in FoFCou.
 Harris En= -328.986646963471    
 JPrj=0 DoOrth=F DoCkMO=F.
 Leave Link  401 at Tue Feb 23 00:11:10 2021, MaxMem=   104857600 cpu:              11.3 elap:               0.4
 (Enter /sw/arch/RedHatEnterpriseServer7/EB_production/2019/software/Gaussian/g16.c01/l502.exe)
 Integral symmetry usage will be decided dynamically.
 Closed shell SCF:
 Using DIIS extrapolation, IDIIS=  1040.
 NGot=   104857600 LenX=   104747100 LenY=   104696483
 Requested convergence on RMS density matrix=1.00D-08 within 128 cycles.
 Requested convergence on MAX density matrix=1.00D-06.
 Requested convergence on             energy=1.00D-06.
 No special actions if energy rises.
 Fock matrices will be formed incrementally for  20 cycles.

 Cycle   1  Pass 1  IDiag  1:
 FoFJK:  IHMeth= 1 ICntrl=     500 DoSepK=F KAlg= 0 I1Cent=           0 FoldK=F
 IRaf= 960000000 NMat=       1 IRICut=       1 DoRegI=T DoRafI=F ISym2E= 0 IDoP0=0 IntGTp=1.
 FoFCou: FMM=F IPFlag=           0 FMFlag=      100000 FMFlg1=           0
         NFxFlg=           0 DoJE=T BraDBF=F KetDBF=F FulRan=T
         wScrn=  0.000000 ICntrl=       500 IOpCl=  0 I1Cent=           0 NGrid=           0
         NMat0=    1 NMatS0=      1 NMatT0=    0 NMatD0=    1 NMtDS0=    0 NMtDT0=    0
 Symmetry not used in FoFCou.
 Inv3:  Mode=1 IEnd=     6049200.
 Iteration    1 A*A^-1 deviation from unit magnitude is 2.89D-15 for   1144.
 Iteration    1 A*A^-1 deviation from orthogonality  is 2.03D-15 for    679     66.
 Iteration    1 A^-1*A deviation from unit magnitude is 3.22D-15 for    922.
 Iteration    1 A^-1*A deviation from orthogonality  is 2.00D-15 for   1170    728.
 E= -328.697888770708    
 DIIS: error= 2.44D-02 at cycle   1 NSaved=   1.
 NSaved= 1 IEnMin= 1 EnMin= -328.697888770708     IErMin= 1 ErrMin= 2.44D-02
 ErrMax= 2.44D-02  0.00D+00 EMaxC= 1.00D-01 BMatC= 2.16D-01 BMatP= 2.16D-01
 IDIUse=3 WtCom= 7.56D-01 WtEn= 2.44D-01
 Coeff-Com:  0.100D+01
 Coeff-En:   0.100D+01
 Coeff:      0.100D+01
 Gap=     0.134 Goal=   None    Shift=    0.000
 GapD=    0.134 DampG=1.000 DampE=0.500 DampFc=0.5000 IDamp=-1.
 Damping current iteration by 5.00D-01
 RMSDP=6.50D-03 MaxDP=5.00D-01              OVMax= 1.81D-01

 Cycle   2  Pass 1  IDiag  1:
 RMSU=  3.25D-03    CP:  1.01D+00
 E= -328.735866910594     Delta-E=       -0.037978139887 Rises=F Damp=T
 DIIS: error= 1.50D-02 at cycle   2 NSaved=   2.
 NSaved= 2 IEnMin= 2 EnMin= -328.735866910594     IErMin= 2 ErrMin= 1.50D-02
 ErrMax= 1.50D-02  0.00D+00 EMaxC= 1.00D-01 BMatC= 4.38D-02 BMatP= 2.16D-01
 IDIUse=3 WtCom= 8.50D-01 WtEn= 1.50D-01
 Coeff-Com:  0.273D+00 0.727D+00
 Coeff-En:   0.402D+00 0.598D+00
 Coeff:      0.293D+00 0.707D+00
 Gap=     0.245 Goal=   None    Shift=    0.000
 RMSDP=1.89D-03 MaxDP=1.67D-01 DE=-3.80D-02 OVMax= 1.24D-01

 Cycle   3  Pass 1  IDiag  1:
 RMSU=  9.04D-04    CP:  9.97D-01  4.92D-01
 E= -328.871485786882     Delta-E=       -0.135618876288 Rises=F Damp=F
 DIIS: error= 5.73D-03 at cycle   3 NSaved=   3.
 NSaved= 3 IEnMin= 3 EnMin= -328.871485786882     IErMin= 3 ErrMin= 5.73D-03
 ErrMax= 5.73D-03  0.00D+00 EMaxC= 1.00D-01 BMatC= 1.05D-02 BMatP= 4.38D-02
 IDIUse=3 WtCom= 9.43D-01 WtEn= 5.73D-02
 Coeff-Com:  0.104D+00 0.333D+00 0.563D+00
 Coeff-En:   0.000D+00 0.000D+00 0.100D+01
 Coeff:      0.981D-01 0.314D+00 0.588D+00
 Gap=     0.223 Goal=   None    Shift=    0.000
 RMSDP=5.16D-04 MaxDP=1.64D-02 DE=-1.36D-01 OVMax= 2.32D-02

 Cycle   4  Pass 1  IDiag  1:
 RMSU=  3.71D-04    CP:  1.00D+00  5.65D-01  7.24D-01
 E= -328.877875872874     Delta-E=       -0.006390085992 Rises=F Damp=F
 DIIS: error= 3.91D-03 at cycle   4 NSaved=   4.
 NSaved= 4 IEnMin= 4 EnMin= -328.877875872874     IErMin= 4 ErrMin= 3.91D-03
 ErrMax= 3.91D-03  0.00D+00 EMaxC= 1.00D-01 BMatC= 3.06D-03 BMatP= 1.05D-02
 IDIUse=3 WtCom= 9.61D-01 WtEn= 3.91D-02
 Coeff-Com:  0.295D-01 0.885D-01 0.358D+00 0.524D+00
 Coeff-En:   0.000D+00 0.000D+00 0.256D+00 0.744D+00
 Coeff:      0.284D-01 0.850D-01 0.354D+00 0.533D+00
 Gap=     0.229 Goal=   None    Shift=    0.000
 RMSDP=2.51D-04 MaxDP=9.85D-03 DE=-6.39D-03 OVMax= 9.14D-03

 Cycle   5  Pass 1  IDiag  1:
 RMSU=  9.69D-05    CP:  1.00D+00  5.23D-01  7.69D-01  5.25D-01
 E= -328.880639176028     Delta-E=       -0.002763303154 Rises=F Damp=F
 DIIS: error= 4.43D-04 at cycle   5 NSaved=   5.
 NSaved= 5 IEnMin= 5 EnMin= -328.880639176028     IErMin= 5 ErrMin= 4.43D-04
 ErrMax= 4.43D-04  0.00D+00 EMaxC= 1.00D-01 BMatC= 4.64D-05 BMatP= 3.06D-03
 IDIUse=3 WtCom= 9.96D-01 WtEn= 4.43D-03
 Coeff-Com:  0.392D-02 0.108D-01 0.855D-01 0.194D+00 0.706D+00
 Coeff-En:   0.000D+00 0.000D+00 0.000D+00 0.000D+00 0.100D+01
 Coeff:      0.390D-02 0.108D-01 0.852D-01 0.193D+00 0.708D+00
 Gap=     0.228 Goal=   None    Shift=    0.000
 RMSDP=4.07D-05 MaxDP=2.03D-03 DE=-2.76D-03 OVMax= 1.29D-03

 Cycle   6  Pass 1  IDiag  1:
 RMSU=  1.56D-05    CP:  1.00D+00  5.31D-01  7.70D-01  5.70D-01  7.86D-01
 E= -328.880673523050     Delta-E=       -0.000034347022 Rises=F Damp=F
 DIIS: error= 2.19D-04 at cycle   6 NSaved=   6.
 NSaved= 6 IEnMin= 6 EnMin= -328.880673523050     IErMin= 6 ErrMin= 2.19D-04
 ErrMax= 2.19D-04  0.00D+00 EMaxC= 1.00D-01 BMatC= 7.29D-06 BMatP= 4.64D-05
 IDIUse=3 WtCom= 9.98D-01 WtEn= 2.19D-03
 Coeff-Com:  0.194D-02 0.520D-02 0.466D-01 0.112D+00 0.463D+00 0.371D+00
 Coeff-En:   0.000D+00 0.000D+00 0.000D+00 0.000D+00 0.000D+00 0.100D+01
 Coeff:      0.194D-02 0.518D-02 0.465D-01 0.112D+00 0.462D+00 0.373D+00
 Gap=     0.228 Goal=   None    Shift=    0.000
 RMSDP=1.07D-05 MaxDP=4.47D-04 DE=-3.43D-05 OVMax= 3.88D-04

 Cycle   7  Pass 1  IDiag  1:
 RMSU=  5.31D-06    CP:  1.00D+00  5.29D-01  7.73D-01  5.71D-01  7.77D-01
                    CP:  6.01D-01
 E= -328.880679322427     Delta-E=       -0.000005799377 Rises=F Damp=F
 DIIS: error= 1.99D-05 at cycle   7 NSaved=   7.
 NSaved= 7 IEnMin= 7 EnMin= -328.880679322427     IErMin= 7 ErrMin= 1.99D-05
 ErrMax= 1.99D-05  0.00D+00 EMaxC= 1.00D-01 BMatC= 8.97D-08 BMatP= 7.29D-06
 IDIUse=1 WtCom= 1.00D+00 WtEn= 0.00D+00
 Coeff-Com:  0.458D-03 0.101D-02 0.106D-01 0.263D-01 0.116D+00 0.133D+00
 Coeff-Com:  0.713D+00
 Coeff:      0.458D-03 0.101D-02 0.106D-01 0.263D-01 0.116D+00 0.133D+00
 Coeff:      0.713D+00
 Gap=     0.228 Goal=   None    Shift=    0.000
 RMSDP=1.69D-06 MaxDP=3.24D-05 DE=-5.80D-06 OVMax= 6.86D-05

 Cycle   8  Pass 1  IDiag  1:
 RMSU=  1.15D-06    CP:  1.00D+00  5.29D-01  7.72D-01  5.70D-01  7.85D-01
                    CP:  6.00D-01  8.52D-01
 E= -328.880679354913     Delta-E=       -0.000000032487 Rises=F Damp=F
 DIIS: error= 8.04D-06 at cycle   8 NSaved=   8.
 NSaved= 8 IEnMin= 8 EnMin= -328.880679354913     IErMin= 8 ErrMin= 8.04D-06
 ErrMax= 8.04D-06  0.00D+00 EMaxC= 1.00D-01 BMatC= 2.14D-08 BMatP= 8.97D-08
 IDIUse=1 WtCom= 1.00D+00 WtEn= 0.00D+00
 Coeff-Com:  0.119D-03 0.202D-03 0.253D-02 0.666D-02 0.316D-01 0.449D-01
 Coeff-Com:  0.388D+00 0.526D+00
 Coeff:      0.119D-03 0.202D-03 0.253D-02 0.666D-02 0.316D-01 0.449D-01
 Coeff:      0.388D+00 0.526D+00
 Gap=     0.228 Goal=   None    Shift=    0.000
 RMSDP=6.80D-07 MaxDP=2.48D-05 DE=-3.25D-08 OVMax= 2.84D-05

 Cycle   9  Pass 1  IDiag  1:
 RMSU=  4.06D-07    CP:  1.00D+00  5.29D-01  7.72D-01  5.71D-01  7.84D-01
                    CP:  6.01D-01  8.70D-01  6.65D-01
 E= -328.880679369899     Delta-E=       -0.000000014985 Rises=F Damp=F
 DIIS: error= 2.19D-06 at cycle   9 NSaved=   9.
 NSaved= 9 IEnMin= 9 EnMin= -328.880679369899     IErMin= 9 ErrMin= 2.19D-06
 ErrMax= 2.19D-06  0.00D+00 EMaxC= 1.00D-01 BMatC= 1.47D-09 BMatP= 2.14D-08
 IDIUse=1 WtCom= 1.00D+00 WtEn= 0.00D+00
 Coeff-Com:  0.917D-05-0.855D-05 0.675D-04 0.321D-03 0.186D-02 0.568D-02
 Coeff-Com:  0.983D-01 0.255D+00 0.638D+00
 Coeff:      0.917D-05-0.855D-05 0.675D-04 0.321D-03 0.186D-02 0.568D-02
 Coeff:      0.983D-01 0.255D+00 0.638D+00
 Gap=     0.228 Goal=   None    Shift=    0.000
 RMSDP=1.83D-07 MaxDP=8.46D-06 DE=-1.50D-08 OVMax= 6.66D-06

 Cycle  10  Pass 1  IDiag  1:
 RMSU=  9.68D-08    CP:  1.00D+00  5.29D-01  7.72D-01  5.71D-01  7.84D-01
                    CP:  6.02D-01  8.78D-01  6.80D-01  6.78D-01
 E= -328.880679375147     Delta-E=       -0.000000005249 Rises=F Damp=F
 DIIS: error= 3.62D-07 at cycle  10 NSaved=  10.
 NSaved=10 IEnMin=10 EnMin= -328.880679375147     IErMin=10 ErrMin= 3.62D-07
 ErrMax= 3.62D-07  0.00D+00 EMaxC= 1.00D-01 BMatC= 1.96D-11 BMatP= 1.47D-09
 IDIUse=1 WtCom= 1.00D+00 WtEn= 0.00D+00
 Coeff-Com: -0.331D-06-0.954D-05-0.464D-04-0.866D-04-0.398D-03 0.413D-03
 Coeff-Com:  0.158D-01 0.589D-01 0.190D+00 0.735D+00
 Coeff:     -0.331D-06-0.954D-05-0.464D-04-0.866D-04-0.398D-03 0.413D-03
 Coeff:      0.158D-01 0.589D-01 0.190D+00 0.735D+00
 Gap=     0.228 Goal=   None    Shift=    0.000
 RMSDP=3.19D-08 MaxDP=7.06D-07 DE=-5.25D-09 OVMax= 1.27D-06

 Cycle  11  Pass 1  IDiag  1:
 RMSU=  1.83D-08    CP:  1.00D+00  5.29D-01  7.72D-01  5.71D-01  7.84D-01
                    CP:  6.02D-01  8.78D-01  6.89D-01  7.08D-01  7.97D-01
 E= -328.880679375163     Delta-E=       -0.000000000016 Rises=F Damp=F
 DIIS: error= 1.35D-07 at cycle  11 NSaved=  11.
 NSaved=11 IEnMin=11 EnMin= -328.880679375163     IErMin=11 ErrMin= 1.35D-07
 ErrMax= 1.35D-07  0.00D+00 EMaxC= 1.00D-01 BMatC= 2.54D-12 BMatP= 1.96D-11
 IDIUse=1 WtCom= 1.00D+00 WtEn= 0.00D+00
 Coeff-Com: -0.199D-06-0.445D-05-0.204D-04-0.452D-04-0.221D-03 0.433D-04
 Coeff-Com:  0.434D-02 0.196D-01 0.681D-01 0.352D+00 0.556D+00
 Coeff:     -0.199D-06-0.445D-05-0.204D-04-0.452D-04-0.221D-03 0.433D-04
 Coeff:      0.434D-02 0.196D-01 0.681D-01 0.352D+00 0.556D+00
 Gap=     0.228 Goal=   None    Shift=    0.000
 RMSDP=6.90D-09 MaxDP=1.22D-07 DE=-1.59D-11 OVMax= 3.49D-07

 Error on total polarization charges =  0.00856
 SCF Done:  E(RB-P86) =  -328.880679375     A.U. after   11 cycles
            NFock= 11  Conv=0.69D-08     -V/T= 2.0055
 KE= 3.270702530740D+02 PE=-1.452615825328D+03 EE= 4.472320266512D+02
 Leave Link  502 at Tue Feb 23 00:11:20 2021, MaxMem=   104857600 cpu:             298.2 elap:               9.5
 (Enter /sw/arch/RedHatEnterpriseServer7/EB_production/2019/software/Gaussian/g16.c01/l601.exe)
 Copying SCF densities to generalized density rwf, IOpCl= 0 IROHF=0.

 **********************************************************************

            Population analysis using the SCF Density.

 **********************************************************************

 Orbital symmetries:
       Occupied  (A) (A) (A) (A) (A) (A) (A) (A) (A) (A) (A) (A)
                 (A) (A) (A) (A) (A) (A) (A) (A) (A) (A) (A) (A)
                 (A) (A) (A) (A) (A)
       Virtual   (A) (A) (A) (A) (A) (A) (A) (A) (A) (A) (A) (A)
                 (A) (A) (A) (A) (A) (A) (A) (A) (A) (A) (A) (A)
                 (A) (A) (A) (A) (A) (A) (A) (A) (A) (A) (A) (A)
                 (A) (A) (A) (A) (A) (A) (A) (A) (A) (A) (A) (A)
                 (A) (A) (A) (A) (A) (A) (A) (A) (A) (A) (A) (A)
                 (A) (A) (A) (A) (A) (A) (A) (A) (A) (A) (A) (A)
                 (A) (A) (A) (A) (A) (A) (A) (A) (A) (A) (A) (A)
                 (A) (A) (A) (A) (A) (A) (A) (A) (A) (A) (A) (A)
                 (A) (A) (A) (A) (A) (A) (A) (A) (A) (A) (A) (A)
                 (A) (A) (A) (A) (A) (A) (A) (A) (A) (A) (A) (A)
                 (A) (A) (A) (A) (A) (A) (A) (A) (A) (A) (A) (A)
                 (A) (A) (A) (A) (A) (A) (A) (A) (A) (A) (A) (A)
                 (A) (A) (A) (A) (A) (A) (A) (A) (A) (A) (A) (A)
                 (A) (A) (A) (A) (A) (A) (A) (A) (A) (A) (A) (A)
                 (A) (A) (A) (A) (A) (A) (A) (A) (A) (A) (A) (A)
                 (A) (A) (A) (A) (A) (A) (A) (A)
 The electronic state is 1-A.
 Alpha  occ. eigenvalues --  -18.79050 -14.16817  -9.97616  -9.96945  -9.96437
 Alpha  occ. eigenvalues --   -9.96427  -9.96426  -0.96374  -0.95630  -0.72554
 Alpha  occ. eigenvalues --   -0.70141  -0.70024  -0.63039  -0.57436  -0.51406
 Alpha  occ. eigenvalues --   -0.50113  -0.48938  -0.46420  -0.44921  -0.41260
 Alpha  occ. eigenvalues --   -0.40067  -0.38221  -0.38146  -0.37741  -0.37489
 Alpha  occ. eigenvalues --   -0.37380  -0.36032  -0.31729  -0.24908
 Alpha virt. eigenvalues --   -0.02122   0.00192   0.02476   0.03627   0.03702
 Alpha virt. eigenvalues --    0.03807   0.04590   0.04635   0.06895   0.07403
 Alpha virt. eigenvalues --    0.08391   0.08749   0.09883   0.10614   0.11335
 Alpha virt. eigenvalues --    0.11630   0.13068   0.13855   0.14122   0.15006
 Alpha virt. eigenvalues --    0.17456   0.20290   0.21780   0.21921   0.23273
 Alpha virt. eigenvalues --    0.24883   0.25263   0.26081   0.28180   0.30575
 Alpha virt. eigenvalues --    0.31580   0.31905   0.34466   0.34514   0.36058
 Alpha virt. eigenvalues --    0.37011   0.38784   0.38849   0.39326   0.39592
 Alpha virt. eigenvalues --    0.39876   0.40389   0.41364   0.41773   0.42099
 Alpha virt. eigenvalues --    0.42291   0.43139   0.43640   0.44900   0.45555
 Alpha virt. eigenvalues --    0.46347   0.46890   0.49345   0.53811   0.58991
 Alpha virt. eigenvalues --    0.60092   0.64057   0.65621   0.67643   0.69273
 Alpha virt. eigenvalues --    0.72343   0.84782   0.99180   0.99829   1.12208
 Alpha virt. eigenvalues --    1.13407   1.14210   1.15015   1.15911   1.16633
 Alpha virt. eigenvalues --    1.17715   1.18435   1.21320   1.22002   1.23494
 Alpha virt. eigenvalues --    1.24439   1.25436   1.26040   1.28969   1.29199
 Alpha virt. eigenvalues --    1.31473   1.34481   1.36336   1.38290   1.38357
 Alpha virt. eigenvalues --    1.43831   1.44539   1.44782   1.46071   1.47700
 Alpha virt. eigenvalues --    1.51077   1.51428   1.53302   1.56906   1.59092
 Alpha virt. eigenvalues --    1.61875   1.63261   1.63971   1.65481   1.66221
 Alpha virt. eigenvalues --    1.66430   1.67657   1.68732   1.68772   1.70471
 Alpha virt. eigenvalues --    1.71020   1.71536   1.72167   1.72508   1.73412
 Alpha virt. eigenvalues --    1.78308   1.80993   1.83626   1.85359   1.86070
 Alpha virt. eigenvalues --    1.89069   1.89187   1.92334   1.96600   1.96777
 Alpha virt. eigenvalues --    2.00186   2.05496   2.13426   2.14079   2.14315
 Alpha virt. eigenvalues --    2.16439   2.18676   2.22461   2.27300   2.27530
 Alpha virt. eigenvalues --    2.28678   2.31908   2.32070   2.34497   2.35009
 Alpha virt. eigenvalues --    2.37730   2.37930   2.40453   2.41268   2.46454
 Alpha virt. eigenvalues --    2.48067   2.51362   2.53474   2.54801   2.56576
 Alpha virt. eigenvalues --    2.56611   2.58919   2.59797   2.59894   2.62742
 Alpha virt. eigenvalues --    2.64706   2.66444   2.66662   2.79767   2.81667
 Alpha virt. eigenvalues --    2.82674   2.83910   2.84606   2.86807   2.90526
 Alpha virt. eigenvalues --    2.93443   3.00420   3.04723   3.04950   3.07006
 Alpha virt. eigenvalues --    3.09502   3.16462   3.19805   3.21418   3.22397
 Alpha virt. eigenvalues --    3.24454   3.26819   3.28199   3.32858   3.33690
 Alpha virt. eigenvalues --    3.34370   3.53162   3.53392   3.54553   3.87241
 Alpha virt. eigenvalues --    4.14714  21.65551  21.78299  21.78875  21.81497
 Alpha virt. eigenvalues --   21.83025  31.59882  43.11791
          Condensed to atoms (all electrons):
               1          2          3          4          5          6
     1  C    5.180112   0.241303  -0.084307  -0.111659  -0.086546   0.008473
     2  N    0.241303   6.450338   0.270179   0.241302   0.138372   0.010015
     3  C   -0.084307   0.270179   5.113029  -0.084307  -0.097882   0.013043
     4  C   -0.111659   0.241302  -0.084307   5.180114  -0.086548   0.008474
     5  C   -0.086546   0.138372  -0.097882  -0.086548   5.699957   0.037303
     6  C    0.008473   0.010015   0.013043   0.008474   0.037303   5.070039
     7  O   -0.000661   0.005126  -0.000157  -0.000661  -0.095488   0.299811
     8  H    0.392120  -0.016941   0.008887  -0.005371  -0.011239   0.002620
     9  H    0.378212  -0.012241  -0.006270   0.011070  -0.003722  -0.002953
    10  H    0.387598  -0.012805  -0.006634  -0.007354   0.008639   0.000397
    11  H   -0.008934  -0.012566   0.390199  -0.008934   0.009530  -0.000483
    12  H    0.009439  -0.014725   0.387213  -0.005185  -0.008088   0.000243
    13  H   -0.005185  -0.014725   0.387213   0.009439  -0.008088   0.000243
    14  H   -0.005371  -0.016941   0.008887   0.392122  -0.011239   0.002620
    15  H    0.011070  -0.012241  -0.006271   0.378212  -0.003722  -0.002953
    16  H   -0.007354  -0.012805  -0.006634   0.387596   0.008640   0.000397
    17  H    0.014798  -0.008293  -0.005648  -0.019428   0.362471  -0.018248
    18  H   -0.019428  -0.008293  -0.005648   0.014798   0.362470  -0.018248
    19  H   -0.006710  -0.003126  -0.000578   0.018078  -0.047845   0.421611
    20  H    0.018078  -0.003125  -0.000578  -0.006710  -0.047845   0.421610
    21  H   -0.000019  -0.000424   0.000036  -0.000019   0.013465  -0.035052
               7          8          9         10         11         12
     1  C   -0.000661   0.392120   0.378212   0.387598  -0.008934   0.009439
     2  N    0.005126  -0.016941  -0.012241  -0.012805  -0.012566  -0.014725
     3  C   -0.000157   0.008887  -0.006270  -0.006634   0.390199   0.387213
     4  C   -0.000661  -0.005371   0.011070  -0.007354  -0.008934  -0.005185
     5  C   -0.095488  -0.011239  -0.003722   0.008639   0.009530  -0.008088
     6  C    0.299811   0.002620  -0.002953   0.000397  -0.000483   0.000243
     7  O    7.947846  -0.000137   0.000195  -0.000006   0.000005  -0.000018
     8  H   -0.000137   0.465379  -0.019217  -0.019529   0.000103  -0.000344
     9  H    0.000195  -0.019217   0.469454  -0.018937   0.000173   0.000005
    10  H   -0.000006  -0.019529  -0.018937   0.465372   0.002642   0.000049
    11  H    0.000005   0.000103   0.000173   0.002642   0.465136  -0.019732
    12  H   -0.000018  -0.000344   0.000005   0.000049  -0.019732   0.469715
    13  H   -0.000018   0.000018   0.001906  -0.000099  -0.019732  -0.019346
    14  H   -0.000137   0.001371   0.000060  -0.000125   0.000103   0.000018
    15  H    0.000195   0.000060  -0.000399   0.000017   0.000173   0.001906
    16  H   -0.000006  -0.000125   0.000017   0.002263   0.002642  -0.000099
    17  H    0.014388   0.000074  -0.000394  -0.000170   0.000054   0.003034
    18  H    0.014387   0.000264   0.003897  -0.000170   0.000054  -0.000334
    19  H   -0.051472  -0.000061   0.000438  -0.000042   0.000011   0.000068
    20  H   -0.051471  -0.000640  -0.002194   0.000249   0.000011  -0.000023
    21  H    0.305611   0.000014  -0.000004  -0.000001  -0.000001  -0.000000
              13         14         15         16         17         18
     1  C   -0.005185  -0.005371   0.011070  -0.007354   0.014798  -0.019428
     2  N   -0.014725  -0.016941  -0.012241  -0.012805  -0.008293  -0.008293
     3  C    0.387213   0.008887  -0.006271  -0.006634  -0.005648  -0.005648
     4  C    0.009439   0.392122   0.378212   0.387596  -0.019428   0.014798
     5  C   -0.008088  -0.011239  -0.003722   0.008640   0.362471   0.362470
     6  C    0.000243   0.002620  -0.002953   0.000397  -0.018248  -0.018248
     7  O   -0.000018  -0.000137   0.000195  -0.000006   0.014388   0.014387
     8  H    0.000018   0.001371   0.000060  -0.000125   0.000074   0.000264
     9  H    0.001906   0.000060  -0.000399   0.000017  -0.000394   0.003897
    10  H   -0.000099  -0.000125   0.000017   0.002263  -0.000170  -0.000170
    11  H   -0.019732   0.000103   0.000173   0.002642   0.000054   0.000054
    12  H   -0.019346   0.000018   0.001906  -0.000099   0.003034  -0.000334
    13  H    0.469715  -0.000344   0.000005   0.000049  -0.000334   0.003034
    14  H   -0.000344   0.465373  -0.019217  -0.019529   0.000264   0.000074
    15  H    0.000005  -0.019217   0.469455  -0.018938   0.003896  -0.000394
    16  H    0.000049  -0.019529  -0.018938   0.465377  -0.000170  -0.000170
    17  H   -0.000334   0.000264   0.003896  -0.000170   0.487288  -0.026084
    18  H    0.003034   0.000074  -0.000394  -0.000170  -0.026084   0.487290
    19  H   -0.000023  -0.000641  -0.002194   0.000249  -0.012569   0.008721
    20  H    0.000068  -0.000061   0.000438  -0.000042   0.008721  -0.012569
    21  H   -0.000000   0.000014  -0.000004  -0.000001  -0.000716  -0.000716
              19         20         21
     1  C   -0.006710   0.018078  -0.000019
     2  N   -0.003126  -0.003125  -0.000424
     3  C   -0.000578  -0.000578   0.000036
     4  C    0.018078  -0.006710  -0.000019
     5  C   -0.047845  -0.047845   0.013465
     6  C    0.421611   0.421610  -0.035052
     7  O   -0.051472  -0.051471   0.305611
     8  H   -0.000061  -0.000640   0.000014
     9  H    0.000438  -0.002194  -0.000004
    10  H   -0.000042   0.000249  -0.000001
    11  H    0.000011   0.000011  -0.000001
    12  H    0.000068  -0.000023  -0.000000
    13  H   -0.000023   0.000068  -0.000000
    14  H   -0.000641  -0.000061   0.000014
    15  H   -0.002194   0.000438  -0.000004
    16  H    0.000249  -0.000042  -0.000001
    17  H   -0.012569   0.008721  -0.000716
    18  H    0.008721  -0.012569  -0.000716
    19  H    0.569630  -0.055213  -0.003292
    20  H   -0.055213   0.569630  -0.003292
    21  H   -0.003292  -0.003292   0.414765
 Mulliken charges:
               1
     1  C   -0.305031
     2  N   -0.207386
     3  C   -0.273775
     4  C   -0.305031
     5  C   -0.132595
     6  C   -0.218963
     7  O   -0.387330
     8  H    0.202694
     9  H    0.200905
    10  H    0.198644
    11  H    0.199544
    12  H    0.196203
    13  H    0.196202
    14  H    0.202697
    15  H    0.200904
    16  H    0.198641
    17  H    0.197065
    18  H    0.197063
    19  H    0.164956
    20  H    0.164956
    21  H    0.309635
 Sum of Mulliken charges =   1.00000
 Mulliken charges with hydrogens summed into heavy atoms:
               1
     1  C    0.297212
     2  N   -0.207386
     3  C    0.318175
     4  C    0.297212
     5  C    0.261533
     6  C    0.110949
     7  O   -0.077695
 Electronic spatial extent (au):  <R**2>=            997.4509
 Charge=              1.0000 electrons
 Dipole moment (field-independent basis, Debye):
    X=             -4.2611    Y=             -2.0344    Z=              0.0000  Tot=              4.7218
 Quadrupole moment (field-independent basis, Debye-Ang):
   XX=            -29.1157   YY=            -37.7787   ZZ=            -37.4487
   XY=             -6.9844   XZ=              0.0001   YZ=              0.0000
 Traceless Quadrupole moment (field-independent basis, Debye-Ang):
   XX=              5.6653   YY=             -2.9977   ZZ=             -2.6677
   XY=             -6.9844   XZ=              0.0001   YZ=              0.0000
 Octapole moment (field-independent basis, Debye-Ang**2):
  XXX=              8.5632  YYY=              0.2568  ZZZ=              0.0001  XYY=             -6.6049
  XXY=            -19.9713  XXZ=              0.0002  XZZ=             -5.8564  YZZ=             -2.6629
  YYZ=             -0.0001  XYZ=             -0.0000
 Hexadecapole moment (field-independent basis, Debye-Ang**3):
 XXXX=           -609.2478 YYYY=           -212.5865 ZZZZ=           -191.4812 XXXY=            -73.1893
 XXXZ=              0.0010 YYYX=             -7.8094 YYYZ=              0.0002 ZZZX=              0.0000
 ZZZY=              0.0000 XXYY=           -159.2108 XXZZ=           -165.8088 YYZZ=            -62.5912
 XXYZ=              0.0001 YYXZ=              0.0001 ZZXY=              2.1231
 N-N= 3.494328662279D+02 E-N=-1.452615818528D+03  KE= 3.270702530740D+02
 No NMR shielding tensors so no spin-rotation constants.
 Leave Link  601 at Tue Feb 23 00:11:20 2021, MaxMem=   104857600 cpu:               5.0 elap:               0.2
 (Enter /sw/arch/RedHatEnterpriseServer7/EB_production/2019/software/Gaussian/g16.c01/l701.exe)
 ... and contract with generalized density number  0.
 Compute integral first derivatives.
 R6Disp: Adding Grimme-D3 dispersion energy 1st derivatives to the gradient.
 PrsmSu:  requested number of processors reduced to:  29 ShMem   1 Linda.
 D1PCM: PCM CHGder 1st derivatives, ID1Alg=3 FixD1E=F DoIter=F DoCFld=F I1PDM=0.
 GePol: Maximum number of non-zero 1st derivatives   =     197
 CoulSu:  requested number of processors reduced to:  29 ShMem   1 Linda.
 CoulSu:  requested number of processors reduced to:  30 ShMem   1 Linda.
 Leave Link  701 at Tue Feb 23 00:11:21 2021, MaxMem=   104857600 cpu:              20.6 elap:               0.7
 (Enter /sw/arch/RedHatEnterpriseServer7/EB_production/2019/software/Gaussian/g16.c01/l702.exe)
 L702 exits ... SP integral derivatives will be done elsewhere.
 Leave Link  702 at Tue Feb 23 00:11:21 2021, MaxMem=   104857600 cpu:               0.9 elap:               0.1
 (Enter /sw/arch/RedHatEnterpriseServer7/EB_production/2019/software/Gaussian/g16.c01/l703.exe)
 Integral derivatives from FoFJK, PRISM(SPDF).
 Compute integral first derivatives, UseDBF=F ICtDFT=           0.
 Calling FoFJK, ICntrl=      2527 FMM=F ISym2X=0 I1Cent= 0 IOpClX= 0 NMat=1 NMatS=1 NMatT=0.
 FoFJK:  IHMeth= 1 ICntrl=    2527 DoSepK=F KAlg= 0 I1Cent=           0 FoldK=F
 IRaf=         0 NMat=       1 IRICut=       1 DoRegI=T DoRafI=F ISym2E= 0 IDoP0=0 IntGTp=1.
 FoFCou: FMM=F IPFlag=           0 FMFlag=      100000 FMFlg1=         800
         NFxFlg=           0 DoJE=F BraDBF=F KetDBF=F FulRan=T
         wScrn=  0.000000 ICntrl=      2527 IOpCl=  0 I1Cent=           0 NGrid=           0
         NMat0=    1 NMatS0=      1 NMatT0=    0 NMatD0=    1 NMtDS0=    0 NMtDT0=    0
 Symmetry not used in FoFCou.
 Leave Link  703 at Tue Feb 23 00:11:23 2021, MaxMem=   104857600 cpu:              47.7 elap:               1.5
 (Enter /sw/arch/RedHatEnterpriseServer7/EB_production/2019/software/Gaussian/g16.c01/l716.exe)
 Dipole        =-1.67642907D+00-8.00401311D-01 9.13239953D-06
 ***** Axes restored to original set *****
 -------------------------------------------------------------------
 Center     Atomic                   Forces (Hartrees/Bohr)
 Number     Number              X              Y              Z
 -------------------------------------------------------------------
      1        6           0.006556265   -0.006363675   -0.009663401
      2        7          -0.002465140   -0.001945959   -0.002024068
      3        6          -0.005152077    0.012167200   -0.001772775
      4        6          -0.005773512   -0.009016542    0.007884656
      5        6           0.020332278    0.005899422    0.015156310
      6        6          -0.008499092   -0.009495354   -0.007399979
      7        8           0.003158312    0.009592975    0.003669513
      8        1           0.000407585   -0.000524820    0.007396425
      9        1          -0.000024083    0.005846284    0.004137515
     10        1          -0.006201408    0.002648732    0.004171585
     11        1           0.001658462   -0.008471214   -0.000120386
     12        1           0.002994614   -0.003680768    0.006065530
     13        1           0.007181196   -0.002777763    0.000097760
     14        1           0.007071200    0.000906023   -0.002091147
     15        1           0.003004372    0.006498517   -0.000178886
     16        1           0.001324674    0.004274453   -0.006543353
     17        1          -0.007653929   -0.000264881   -0.001987525
     18        1          -0.004484596    0.000418950   -0.006504120
     19        1          -0.008290339   -0.007066271   -0.000426105
     20        1          -0.002305634   -0.005773778   -0.008955855
     21        1          -0.002839148    0.007128466   -0.000911696
 -------------------------------------------------------------------
 Cartesian Forces:  Max     0.020332278 RMS     0.006312333
 Leave Link  716 at Tue Feb 23 00:11:23 2021, MaxMem=   104857600 cpu:               0.7 elap:               0.0
 (Enter /sw/arch/RedHatEnterpriseServer7/EB_production/2019/software/Gaussian/g16.c01/l103.exe)

 GradGradGradGradGradGradGradGradGradGradGradGradGradGradGradGradGradGrad
 Berny optimization.
 FormGI is forming the generalized inverse of G from B-inverse, IUseBI=4.
 Internal  Forces:  Max     0.025993904 RMS     0.005699335
 Search for a local minimum.
 Step number   1 out of a maximum of  115
 All quantities printed in internal units (Hartrees-Bohrs-Radians)
 RMS Force = .56993D-02 SwitMx=.10000D-02 MixMth= 1
 Mixed Optimization -- RFO/linear search
 Second derivative matrix not updated -- first step.
 ITU=  0
     Eigenvalues ---    0.00230   0.00230   0.00230   0.00234   0.00234
     Eigenvalues ---    0.01372   0.02918   0.04306   0.04609   0.04822
     Eigenvalues ---    0.05051   0.05108   0.05309   0.05310   0.05314
     Eigenvalues ---    0.05326   0.05353   0.05353   0.05525   0.09254
     Eigenvalues ---    0.11538   0.12844   0.13769   0.14300   0.14447
     Eigenvalues ---    0.16000   0.16000   0.16000   0.16000   0.16000
     Eigenvalues ---    0.16000   0.16000   0.16000   0.16000   0.16000
     Eigenvalues ---    0.22033   0.22048   0.27217   0.30046   0.30884
     Eigenvalues ---    0.31329   0.31330   0.34028   0.34028   0.34337
     Eigenvalues ---    0.34338   0.34355   0.34356   0.34358   0.34399
     Eigenvalues ---    0.34399   0.34556   0.34558   0.34693   0.34693
     Eigenvalues ---    0.41839   0.51198
 RFO step:  Lambda=-1.66775569D-02 EMin= 2.30000000D-03
 Linear search not attempted -- first point.
 Iteration  1 RMS(Cart)=  0.06795378 RMS(Int)=  0.00160276
 Iteration  2 RMS(Cart)=  0.00184151 RMS(Int)=  0.00095993
 Iteration  3 RMS(Cart)=  0.00000494 RMS(Int)=  0.00095993
 Iteration  4 RMS(Cart)=  0.00000002 RMS(Int)=  0.00095993
 ITry= 1 IFail=0 DXMaxC= 2.27D-01 DCOld= 1.00D+10 DXMaxT= 3.00D-01 DXLimC= 3.00D+00 Rises=F
 Variable       Old X    -DE/DX   Delta X   Delta X   Delta X     New X
                                 (Linear)    (Quad)   (Total)
    R1        2.85388  -0.00542   0.00000  -0.01642  -0.01642   2.83746
    R2        2.06402   0.00227   0.00000   0.00627   0.00627   2.07029
    R3        2.06734   0.00144   0.00000   0.00399   0.00399   2.07133
    R4        2.06764   0.00127   0.00000   0.00352   0.00352   2.07116
    R5        2.86235  -0.00717   0.00000  -0.02203  -0.02203   2.84032
    R6        2.85388  -0.00542   0.00000  -0.01642  -0.01642   2.83746
    R7        2.87871  -0.01191   0.00000  -0.03755  -0.03755   2.84116
    R8        2.06729   0.00134   0.00000   0.00373   0.00373   2.07102
    R9        2.06662   0.00183   0.00000   0.00509   0.00509   2.07170
   R10        2.06662   0.00183   0.00000   0.00508   0.00508   2.07170
   R11        2.06399   0.00228   0.00000   0.00630   0.00630   2.07029
   R12        2.06735   0.00144   0.00000   0.00399   0.00399   2.07133
   R13        2.06766   0.00126   0.00000   0.00350   0.00350   2.07116
   R14        2.93883  -0.01406   0.00000  -0.04866  -0.04866   2.89016
   R15        2.07283   0.00129   0.00000   0.00362   0.00362   2.07645
   R16        2.07284   0.00129   0.00000   0.00362   0.00362   2.07645
   R17        2.69129   0.00986   0.00000   0.02267   0.02267   2.71395
   R18        2.06177   0.00819   0.00000   0.02251   0.02251   2.08428
   R19        2.06176   0.00819   0.00000   0.02252   0.02252   2.08428
   R20        1.85375  -0.00713   0.00000  -0.01349  -0.01349   1.84027
    A1        1.95154  -0.00656   0.00000  -0.03685  -0.03759   1.91395
    A2        1.94403  -0.00657   0.00000  -0.03767  -0.03846   1.90556
    A3        1.94572  -0.00788   0.00000  -0.04440  -0.04523   1.90049
    A4        1.87910   0.00705   0.00000   0.03949   0.03878   1.91789
    A5        1.86308   0.00785   0.00000   0.04538   0.04460   1.90768
    A6        1.87621   0.00766   0.00000   0.04282   0.04194   1.91815
    A7        1.88696   0.00144   0.00000   0.01705   0.01689   1.90385
    A8        1.90950  -0.00051   0.00000   0.00151   0.00119   1.91069
    A9        1.94148  -0.00028   0.00000  -0.00946  -0.00940   1.93208
   A10        1.88696   0.00144   0.00000   0.01705   0.01689   1.90386
   A11        1.89579  -0.00172   0.00000  -0.01524  -0.01512   1.88068
   A12        1.94148  -0.00028   0.00000  -0.00945  -0.00940   1.93208
   A13        1.95074  -0.00864   0.00000  -0.04891  -0.04987   1.90086
   A14        1.94656  -0.00693   0.00000  -0.03919  -0.04006   1.90650
   A15        1.94655  -0.00693   0.00000  -0.03919  -0.04006   1.90650
   A16        1.87013   0.00837   0.00000   0.04734   0.04636   1.91649
   A17        1.87013   0.00837   0.00000   0.04734   0.04636   1.91649
   A18        1.87540   0.00745   0.00000   0.04222   0.04145   1.91685
   A19        1.95155  -0.00656   0.00000  -0.03686  -0.03760   1.91395
   A20        1.94403  -0.00657   0.00000  -0.03767  -0.03846   1.90556
   A21        1.94571  -0.00788   0.00000  -0.04439  -0.04521   1.90049
   A22        1.87911   0.00705   0.00000   0.03949   0.03878   1.91789
   A23        1.86308   0.00785   0.00000   0.04538   0.04460   1.90768
   A24        1.87620   0.00766   0.00000   0.04282   0.04194   1.91815
   A25        2.06988  -0.01514   0.00000  -0.07055  -0.07033   1.99955
   A26        1.90717  -0.00079   0.00000  -0.03019  -0.02901   1.87816
   A27        1.90716  -0.00079   0.00000  -0.03018  -0.02900   1.87816
   A28        1.85487   0.00930   0.00000   0.05740   0.05495   1.90983
   A29        1.85487   0.00930   0.00000   0.05741   0.05495   1.90982
   A30        1.85861  -0.00030   0.00000   0.02935   0.02628   1.88489
   A31        1.91887  -0.02599   0.00000  -0.10843  -0.10818   1.81069
   A32        1.93827   0.00144   0.00000  -0.01198  -0.01081   1.92746
   A33        1.93828   0.00144   0.00000  -0.01198  -0.01082   1.92746
   A34        1.87920   0.01309   0.00000   0.07154   0.06932   1.94852
   A35        1.87920   0.01309   0.00000   0.07153   0.06931   1.94852
   A36        1.90813  -0.00232   0.00000  -0.00537  -0.00781   1.90032
   A37        1.83025   0.00549   0.00000   0.03109   0.03109   1.86133
    D1       -3.05935  -0.00134   0.00000  -0.01829  -0.01832  -3.07767
    D2       -1.00821   0.00092   0.00000   0.01261   0.01258  -0.99562
    D3        1.14372   0.00003   0.00000  -0.00473  -0.00473   1.13899
    D4        1.12045  -0.00126   0.00000  -0.01717  -0.01714   1.10331
    D5       -3.11159   0.00100   0.00000   0.01373   0.01377  -3.09782
    D6       -0.95966   0.00011   0.00000  -0.00361  -0.00354  -0.96320
    D7       -0.97525  -0.00116   0.00000  -0.01576  -0.01580  -0.99105
    D8        1.07589   0.00110   0.00000   0.01514   0.01511   1.09100
    D9       -3.05537   0.00021   0.00000  -0.00220  -0.00220  -3.05757
   D10        1.03279   0.00049   0.00000   0.01024   0.01036   1.04314
   D11        3.12590   0.00049   0.00000   0.01019   0.01036   3.13626
   D12       -1.06033   0.00049   0.00000   0.01030   0.01035  -1.04997
   D13       -1.03279  -0.00049   0.00000  -0.01024  -0.01035  -1.04315
   D14        1.06032  -0.00049   0.00000  -0.01029  -0.01035   1.04997
   D15       -3.12590  -0.00049   0.00000  -0.01019  -0.01036  -3.13626
   D16        3.14159  -0.00000   0.00000  -0.00000  -0.00000   3.14159
   D17       -1.04848  -0.00000   0.00000  -0.00005   0.00001  -1.04848
   D18        1.04848   0.00000   0.00000   0.00005  -0.00001   1.04847
   D19        1.00821  -0.00092   0.00000  -0.01261  -0.01258   0.99563
   D20        3.11161  -0.00100   0.00000  -0.01374  -0.01378   3.09783
   D21       -1.07589  -0.00110   0.00000  -0.01514  -0.01511  -1.09100
   D22        3.05935   0.00134   0.00000   0.01829   0.01833   3.07768
   D23       -1.12043   0.00126   0.00000   0.01716   0.01713  -1.10330
   D24        0.97525   0.00116   0.00000   0.01576   0.01580   0.99105
   D25       -1.14372  -0.00003   0.00000   0.00473   0.00473  -1.13899
   D26        0.95968  -0.00011   0.00000   0.00361   0.00354   0.96321
   D27        3.05536  -0.00021   0.00000   0.00220   0.00221   3.05757
   D28       -1.06676   0.00052   0.00000   0.00569   0.00572  -1.06104
   D29        3.08848  -0.00010   0.00000   0.00634   0.00574   3.09422
   D30        1.06117   0.00114   0.00000   0.00505   0.00572   1.06689
   D31       -3.14159  -0.00000   0.00000  -0.00000  -0.00000   3.14159
   D32        1.01365  -0.00062   0.00000   0.00065   0.00001   1.01367
   D33       -1.01366   0.00062   0.00000  -0.00065  -0.00001  -1.01367
   D34        1.06676  -0.00052   0.00000  -0.00570  -0.00573   1.06103
   D35       -1.06118  -0.00114   0.00000  -0.00505  -0.00571  -1.06689
   D36       -3.08849   0.00010   0.00000  -0.00634  -0.00574  -3.09423
   D37        3.14159  -0.00000   0.00000  -0.00000  -0.00000   3.14159
   D38       -1.06366   0.00049   0.00000   0.01173   0.01220  -1.05146
   D39        1.06364  -0.00048   0.00000  -0.01173  -0.01219   1.05145
   D40       -0.98751  -0.00395   0.00000  -0.04201  -0.04352  -1.03103
   D41        1.09043  -0.00346   0.00000  -0.03028  -0.03132   1.05911
   D42       -3.06546  -0.00443   0.00000  -0.05374  -0.05571  -3.12117
   D43        0.98751   0.00395   0.00000   0.04200   0.04351   1.03102
   D44        3.06545   0.00443   0.00000   0.05374   0.05571   3.12116
   D45       -1.09044   0.00346   0.00000   0.03028   0.03132  -1.05912
   D46        3.14159   0.00000   0.00000   0.00000   0.00000   3.14159
   D47        1.02781   0.00555   0.00000   0.03460   0.03805   1.06586
   D48       -1.02781  -0.00555   0.00000  -0.03461  -0.03805  -1.06586
         Item               Value     Threshold  Converged?
 Maximum Force            0.025994     0.000450     NO 
 RMS     Force            0.005699     0.000300     NO 
 Maximum Displacement     0.226555     0.001800     NO 
 RMS     Displacement     0.068489     0.001200     NO 
 Predicted change in Energy=-9.230881D-03
 Lowest energy point so far.  Saving SCF results.
 GradGradGradGradGradGradGradGradGradGradGradGradGradGradGradGradGradGrad

 Leave Link  103 at Tue Feb 23 00:11:23 2021, MaxMem=   104857600 cpu:               2.0 elap:               0.1
 (Enter /sw/arch/RedHatEnterpriseServer7/EB_production/2019/software/Gaussian/g16.c01/l202.exe)
                          Input orientation:                          
 ---------------------------------------------------------------------
 Center     Atomic      Atomic             Coordinates (Angstroms)
 Number     Number       Type             X           Y           Z
 ---------------------------------------------------------------------
      1          6           0       -1.363987   -0.432088   -3.027853
      2          7           0       -1.919039    0.241458   -1.806044
      3          6           0       -2.774797    1.401859   -2.230607
      4          6           0       -2.761621   -0.733988   -1.035897
      5          6           0       -0.809760    0.780315   -0.946060
      6          6           0        0.162320   -0.279019   -0.424561
      7          8           0        1.105603    0.476078    0.351718
      8          1           0       -0.791754   -1.318343   -2.732326
      9          1           0       -0.714010    0.270267   -3.562331
     10          1           0       -2.195425   -0.736491   -3.673833
     11          1           0       -3.591223    1.029619   -2.859863
     12          1           0       -3.185834    1.892229   -1.340407
     13          1           0       -2.163167    2.113133   -2.797941
     14          1           0       -2.163137   -1.614572   -0.777784
     15          1           0       -3.127552   -0.251074   -0.122482
     16          1           0       -3.608317   -1.041687   -1.660133
     17          1           0       -1.271399    1.302482   -0.096580
     18          1           0       -0.258025    1.521376   -1.540874
     19          1           0       -0.371448   -1.020779    0.193006
     20          1           0        0.651417   -0.799840   -1.264821
     21          1           0        1.749436   -0.162536    0.706672
 ---------------------------------------------------------------------
                    Distance matrix (angstroms):
                    1          2          3          4          5
     1  C    0.000000
     2  N    1.501521   0.000000
     3  C    2.447314   1.503032   0.000000
     4  C    2.452022   1.501521   2.447315   0.000000
     5  C    2.472033   1.503476   2.428528   2.472032   0.000000
     6  C    3.021617   2.551754   3.835858   3.021615   1.529408
     7  O    4.283122   3.722827   4.752155   4.283124   2.333539
     8  H    1.095553   2.135826   3.403481   2.664529   2.755982
     9  H    1.096101   2.130134   2.702005   3.403543   2.667243
    10  H    1.096011   2.126360   2.644071   2.698016   3.414895
    11  H    2.669342   2.127894   1.095937   2.669345   3.385459
    12  H    3.401329   2.132282   1.096298   2.677629   2.652845
    13  H    2.677629   2.132282   1.096298   3.401330   2.652843
    14  H    2.664530   2.135826   3.403480   1.095551   2.755981
    15  H    3.403543   2.130134   2.702002   1.096102   2.667247
    16  H    2.698015   2.126361   2.644071   1.096013   3.414896
    17  H    3.407295   2.113640   2.612307   2.692635   1.098811
    18  H    2.692634   2.113640   2.612308   3.407295   1.098811
    19  H    3.421348   2.825683   4.185590   2.702846   2.175668
    20  H    2.702846   2.825680   4.185589   3.421340   2.175668
    21  H    4.869572   4.464825   5.616370   4.869572   3.189039
                    6          7          8          9         10
     6  C    0.000000
     7  O    1.436163   0.000000
     8  H    2.704853   4.041193   0.000000
     9  H    3.303826   4.321241   1.794055   0.000000
    10  H    4.040546   5.345294   1.787535   1.794599   0.000000
    11  H    4.661794   5.716716   3.655984   3.057521   2.393730
    12  H    4.094292   4.825474   4.239909   3.698326   3.651842
    13  H    4.094290   4.825469   3.695958   2.465868   2.981373
    14  H    2.704852   4.041195   2.405968   3.661460   3.026412
    15  H    3.303830   4.321252   3.661462   4.234329   3.703590
    16  H    4.040545   5.345296   3.026411   3.703592   2.478789
    17  H    2.159692   2.556180   3.747791   3.658903   4.219949
    18  H    2.159692   2.556176   3.125449   2.420637   3.660737
    19  H    1.102953   2.108898   2.970314   3.985812   4.284875
    20  H    1.102953   2.108897   2.122536   2.878901   3.729861
    21  H    1.952483   0.973828   4.429474   4.947753   5.922851
                   11         12         13         14         15
    11  H    0.000000
    12  H    1.793650   0.000000
    13  H    1.793651   1.794171   0.000000
    14  H    3.655986   3.695958   4.239908   0.000000
    15  H    3.057519   2.465864   3.698323   1.794058   0.000000
    16  H    2.393732   2.981372   3.651843   1.787535   1.794596
    17  H    3.618255   2.357958   2.957998   3.125450   2.420642
    18  H    3.618255   2.958003   2.357956   3.747790   3.658907
    19  H    4.887852   4.331021   4.688009   2.122539   2.878904
    20  H    4.887850   4.688010   4.331021   2.970304   3.985811
    21  H    6.531772   5.724462   5.724459   4.429475   4.947761
                   16         17         18         19         20
    16  H    0.000000
    17  H    3.660739   0.000000
    18  H    4.219949   1.777871   0.000000
    19  H    3.729863   2.508249   3.079247   0.000000
    20  H    4.284868   3.079247   2.508253   1.794526   0.000000
    21  H    5.922853   3.452091   3.452089   2.344905   2.344906
                   21
    21  H    0.000000
 Stoichiometry    C5H14NO(1+)
 Framework group  C1[X(C5H14NO)]
 Deg. of freedom    57
 Full point group                 C1      NOp   1
 RotChk:  IX=2 Diff= 2.89D-03
 Largest Abelian subgroup         C1      NOp   1
 Largest concise Abelian subgroup C1      NOp   1
                         Standard orientation:                         
 ---------------------------------------------------------------------
 Center     Atomic      Atomic             Coordinates (Angstroms)
 Number     Number       Type             X           Y           Z
 ---------------------------------------------------------------------
      1          6           0       -1.091962   -0.814354   -1.226016
      2          7           0       -0.872652    0.024307   -0.000000
      3          6           0       -1.855824    1.161178    0.000006
      4          6           0       -1.091962   -0.814370    1.226005
      5          6           0        0.510291    0.614144    0.000005
      6          6           0        1.640851   -0.415868    0.000000
      7          8           0        2.832607    0.385555    0.000000
      8          1           0       -0.424212   -1.682579   -1.202994
      9          1           0       -0.887087   -0.209938   -2.117166
     10          1           0       -2.132637   -1.157948   -1.239403
     11          1           0       -2.872374    0.751661    0.000001
     12          1           0       -1.701465    1.772138    0.897096
     13          1           0       -1.701460    1.772151   -0.897075
     14          1           0       -0.424212   -1.682593    1.202973
     15          1           0       -0.887097   -0.209963    2.117163
     16          1           0       -2.132639   -1.157965    1.239386
     17          1           0        0.598832    1.253936    0.888944
     18          1           0        0.598834    1.253945   -0.888928
     19          1           0        1.580057   -1.054407    0.897262
     20          1           0        1.580055   -1.054403   -0.897264
     21          1           0        3.584752   -0.233006   -0.000001
 ---------------------------------------------------------------------
 Rotational constants (GHZ):           4.2897527           1.4685758           1.4438622
 Leave Link  202 at Tue Feb 23 00:11:23 2021, MaxMem=   104857600 cpu:               0.3 elap:               0.0
 (Enter /sw/arch/RedHatEnterpriseServer7/EB_production/2019/software/Gaussian/g16.c01/l301.exe)
 Standard basis: TZVP (5D, 7F)
 Ernie: Thresh=  0.10000D-02 Tol=  0.10000D-05 Strict=F.
 There are   224 symmetry adapted cartesian basis functions of A   symmetry.
 There are   217 symmetry adapted basis functions of A   symmetry.
   217 basis functions,   357 primitive gaussians,   224 cartesian basis functions
    29 alpha electrons       29 beta electrons
       nuclear repulsion energy       354.5989948671 Hartrees.
 IExCor=  404 DFT=T Ex=B Corr=P86 ExCW=0 ScaHFX=  0.000000
 ScaDFX=  1.000000  1.000000  1.000000  1.000000 ScalE2=  1.000000  1.000000
 IRadAn=      5 IRanWt=     -1 IRanGd=            0 ICorTp=0 IEmpDi=131
 NAtoms=   21 NActive=   21 NUniq=   21 SFac= 1.00D+00 NAtFMM=   60 NAOKFM=F Big=F
 Integral buffers will be    131072 words long.
 Raffenetti 2 integral format.
 Two-electron integral symmetry is turned on.
 R6Disp:  Grimme-D3 Dispersion energy=       -0.0209433856 Hartrees.
 Nuclear repulsion after empirical dispersion term =      354.5780514815 Hartrees.
 ------------------------------------------------------------------------------
 Polarizable Continuum Model (PCM)
 =================================
 Model                : PCM.
 Atomic radii         : UFF (Universal Force Field).
 Polarization charges : Total charges.
 Charge compensation  : None.
 Solution method      : On-the-fly selection.
 Cavity type          : Scaled VdW (van der Waals Surface) (Alpha=1.100).
 Cavity algorithm     : GePol (No added spheres)
                        Default sphere list used, NSphG=   21.
                        Lebedev-Laikov grids with approx.  5.0 points / Ang**2.
                        Smoothing algorithm: York/Karplus (Gamma=1.0000).
                        Polarization charges: spherical gaussians, with
                                              point-specific exponents (IZeta= 3).
                        Self-potential: point-specific (ISelfS= 7).
                        Self-field    : sphere-specific E.n sum rule (ISelfD= 2).
 1st derivatives      : Analytical E(r).r(x)/FMM algorithm (CHGder, D1EAlg=3).
                        Cavity 1st derivative terms included.
 Solvent              : Water, Eps=  78.355300 Eps(inf)=   1.777849
 ------------------------------------------------------------------------------
 GePol: Number of generator spheres                  =      21
 GePol: Total number of spheres                      =      21
 GePol: Number of exposed spheres                    =      20 ( 95.24%)
 GePol: Number of points                             =    1392
 GePol: Average weight of points                     =       0.13
 GePol: Minimum weight of points                     =   0.31D-10
[...]
 XCosmo               : -1.000 (infinite dielectric limit)
 Polarization charges : Electronic and nuclear charges.
 Charge compensation  : Type 3 (Electronic density weighted correction).
 Solution method      : On-the-fly selection.
 Cavity type          : VdW (van der Waals Surface) (Alpha=1.000).
 Cavity algorithm     : GePol (No added spheres)
                        Default sphere list used, NSphG=   21.
                        Tesserae with average area of 0.200 Ang**2.
                        Smoothing algorithm: None.
                        Polarization charges: point-like.
                        Self-potential: constant (ISelfS= 1).
                        Self-field    : global E.n sum rule (ISelfD= 3).
 Solvent              : Water, Eps=  78.355300 Eps(inf)=   1.777849
 ------------------------------------------------------------------------------
 One-electron integrals computed using PRISM.
 PrsmSu:  requested number of processors reduced to:  29 ShMem   1 Linda.
 NBasis=   217 RedAO= T EigKep=  3.05D-04  NBF=   217
 NBsUse=   217 1.00D-06 EigRej= -1.00D+00 NBFU=   217
 Initial guess from the checkpoint file:  "OEYIOHPDSNJKLS-UHFFFAOYSA-N.chk"
 B after Tr=    -0.000000    0.000000   -0.000000
         Rot=    1.000000    0.000000   -0.000000    0.000000 Ang=   0.00 deg.
 Requested convergence on RMS density matrix=1.00D-08 within 128 cycles.
 Requested convergence on MAX density matrix=1.00D-06.
 Requested convergence on             energy=1.00D-06.
 No special actions if energy rises.
 Inv3:  Mode=1 IEnd=     4392300.
 Iteration    1 A*A^-1 deviation from unit magnitude is 3.33D-14 for     80.
 Iteration    1 A*A^-1 deviation from orthogonality  is 1.60D-14 for    811     80.
 Iteration    1 A^-1*A deviation from unit magnitude is 2.91D-14 for     80.
 Iteration    1 A^-1*A deviation from orthogonality  is 2.92D-14 for   1153    324.
 Error on nuclear    polarization charges =  0.02460
 Error on electronic polarization charges = -0.04833
 SCF Done:  E(RB-P86) =  -328.881471833     A.U. after   10 cycles
            NFock= 10  Conv=0.35D-08     -V/T= 2.0055
 --------------------------------------------------------------------
 Variational C-PCM results
 =========================
 <psi(f)|   H    |psi(f)>                     (a.u.) =    -328.783027
 <psi(f)|H+V(f)/2|psi(f)>                     (a.u.) =    -328.881472
 Total free energy in solution:
 - with all non electrostatic terms           (a.u.) =    -328.870045
 --------------------------------------------------------------------
 (Polarized solute)-Solvent               (kcal/mol) =     -61.78
 --------------------------------------------------------------------
 Cavitation energy                        (kcal/mol) =      21.60
 Dispersion energy                        (kcal/mol) =     -15.73
 Repulsion energy                         (kcal/mol) =       1.31
 Total non electrostatic                  (kcal/mol) =       7.17
 --------------------------------------------------------------------
 Partition over spheres:
 Sphere  on Atom  Surface  Charge   GEl     GCav    GDR
    1      C1      13.97  -0.065   -3.74    1.64   -1.02
    2      N2       0.00   0.000    0.00    0.00    0.00
    3      C3      14.39  -0.075   -4.23    1.69   -1.09
    4      C4      13.96  -0.074   -4.25    1.64   -1.02
    5      C5       6.10  -0.039   -2.10    0.72   -0.22
    6      C6      11.15  -0.044   -2.41    1.31   -0.58
    7      O7      15.90   0.171    3.69    1.98   -1.48
    8      H8       5.68  -0.057   -3.38    0.80   -0.50
    9      H9       6.47  -0.067   -3.83    0.91   -0.67
   10      H10      6.43  -0.059   -3.48    0.91   -0.64
   11      H11      6.45  -0.059   -3.48    0.91   -0.62
   12      H12      6.45  -0.059   -3.34    0.91   -0.65
   13      H13      6.44  -0.059   -3.39    0.91   -0.65
   14      H14      5.68  -0.058   -3.45    0.80   -0.50
   15      H15      6.47  -0.059   -3.39    0.91   -0.67
   16      H16      6.43  -0.061   -3.60    0.91   -0.64
   17      H17      6.43  -0.059   -3.21    0.91   -0.62
   18      H18      6.43  -0.058   -3.11    0.91   -0.62
   19      H19      5.77  -0.042   -2.27    0.81   -0.62
   20      H20      5.77  -0.043   -2.29    0.81   -0.62
   21      H21      8.55  -0.134   -6.52    1.21   -0.97
 --------------------------------------------------------------------
 - cavitation energy not included in the total energy.
 - dispersion energy not included in the total energy.
 - repulsion  energy not included in the total energy.
 After PCM corrections, the energy is  -328.881471833     a.u.
 --------------------------------------------------------------------
 Writing COSMO formatted file "OEYIOHPDSNJKLS-UHFFFAOYSA-N.cosmo"
 Recomputed dielectric energy= -0.096541 old= -0.098445 diff= 1.90D-03

 **********************************************************************

            Population analysis using the SCF Density.

 **********************************************************************

 Orbital symmetries:
       Occupied  (A) (A) (A) (A) (A) (A) (A) (A) (A) (A) (A) (A)
                 (A) (A) (A) (A) (A) (A) (A) (A) (A) (A) (A) (A)
                 (A) (A) (A) (A) (A)
       Virtual   (A) (A) (A) (A) (A) (A) (A) (A) (A) (A) (A) (A)
                 (A) (A) (A) (A) (A) (A) (A) (A) (A) (A) (A) (A)
                 (A) (A) (A) (A) (A) (A) (A) (A) (A) (A) (A) (A)
                 (A) (A) (A) (A) (A) (A) (A) (A) (A) (A) (A) (A)
                 (A) (A) (A) (A) (A) (A) (A) (A) (A) (A) (A) (A)
                 (A) (A) (A) (A) (A) (A) (A) (A) (A) (A) (A) (A)
                 (A) (A) (A) (A) (A) (A) (A) (A) (A) (A) (A) (A)
                 (A) (A) (A) (A) (A) (A) (A) (A) (A) (A) (A) (A)
                 (A) (A) (A) (A) (A) (A) (A) (A) (A) (A) (A) (A)
                 (A) (A) (A) (A) (A) (A) (A) (A) (A) (A) (A) (A)
                 (A) (A) (A) (A) (A) (A) (A) (A) (A) (A) (A) (A)
                 (A) (A) (A) (A) (A) (A) (A) (A) (A) (A) (A) (A)
                 (A) (A) (A) (A) (A) (A) (A) (A) (A) (A) (A) (A)
                 (A) (A) (A) (A) (A) (A) (A) (A) (A) (A) (A) (A)
                 (A) (A) (A) (A) (A) (A) (A) (A) (A) (A) (A) (A)
                 (A) (A) (A) (A) (A) (A) (A) (A)
 The electronic state is 1-A.
 Alpha  occ. eigenvalues --  -18.78228 -14.14046  -9.95809  -9.95594  -9.94649
 Alpha  occ. eigenvalues --   -9.94644  -9.94630  -0.94982  -0.93809  -0.71201
 Alpha  occ. eigenvalues --   -0.68332  -0.68292  -0.61274  -0.55363  -0.50028
 Alpha  occ. eigenvalues --   -0.47946  -0.46622  -0.44616  -0.43485  -0.39972
 Alpha  occ. eigenvalues --   -0.38367  -0.36621  -0.36193  -0.36089  -0.36043
 Alpha  occ. eigenvalues --   -0.35936  -0.34267  -0.31160  -0.24466
 Alpha virt. eigenvalues --   -0.00576   0.01563   0.04066   0.05118   0.05134
 Alpha virt. eigenvalues --    0.05572   0.05898   0.06029   0.07975   0.09044
 Alpha virt. eigenvalues --    0.10083   0.10347   0.11111   0.12102   0.12930
 Alpha virt. eigenvalues --    0.13377   0.14784   0.15538   0.15707   0.16228
 Alpha virt. eigenvalues --    0.18564   0.21810   0.23360   0.23523   0.24045
 Alpha virt. eigenvalues --    0.26278   0.26515   0.26935   0.28858   0.30854
 Alpha virt. eigenvalues --    0.32280   0.33971   0.34119   0.36185   0.37149
 Alpha virt. eigenvalues --    0.38826   0.39659   0.39767   0.40324   0.40755
 Alpha virt. eigenvalues --    0.41445   0.41640   0.42514   0.43416   0.43741
 Alpha virt. eigenvalues --    0.44146   0.45154   0.45375   0.46213   0.47071
 Alpha virt. eigenvalues --    0.47743   0.48434   0.51584   0.55660   0.59998
 Alpha virt. eigenvalues --    0.60112   0.65061   0.65717   0.68311   0.68508
 Alpha virt. eigenvalues --    0.74516   0.85355   1.00958   1.02255   1.13939
 Alpha virt. eigenvalues --    1.16088   1.16984   1.17869   1.18652   1.18812
 Alpha virt. eigenvalues --    1.20221   1.20977   1.22584   1.23079   1.25704
 Alpha virt. eigenvalues --    1.26684   1.27635   1.28699   1.29444   1.30017
 Alpha virt. eigenvalues --    1.30468   1.35352   1.36789   1.39841   1.40098
 Alpha virt. eigenvalues --    1.43779   1.44573   1.45468   1.47261   1.47749
 Alpha virt. eigenvalues --    1.51666   1.53261   1.55352   1.58045   1.61147
 Alpha virt. eigenvalues --    1.62687   1.65565   1.66284   1.68216   1.68908
 Alpha virt. eigenvalues --    1.68926   1.70152   1.70478   1.71494   1.72158
 Alpha virt. eigenvalues --    1.72689   1.74039   1.74224   1.74576   1.75438
 Alpha virt. eigenvalues --    1.80805   1.83191   1.85554   1.87697   1.88856
 Alpha virt. eigenvalues --    1.90988   1.91826   1.96846   1.99612   2.00020
 Alpha virt. eigenvalues --    2.01414   2.06392   2.12451   2.12774   2.14210
 Alpha virt. eigenvalues --    2.18443   2.20375   2.23920   2.28609   2.29825
 Alpha virt. eigenvalues --    2.31251   2.31568   2.32565   2.36769   2.37130
 Alpha virt. eigenvalues --    2.40484   2.40581   2.42149   2.42795   2.48418
 Alpha virt. eigenvalues --    2.53465   2.53515   2.55845   2.57448   2.58740
 Alpha virt. eigenvalues --    2.59144   2.62583   2.63290   2.64314   2.66104
 Alpha virt. eigenvalues --    2.67111   2.70110   2.70112   2.83378   2.84056
 Alpha virt. eigenvalues --    2.85272   2.86191   2.86592   2.90503   2.95350
 Alpha virt. eigenvalues --    2.96156   3.02376   3.06753   3.07673   3.08270
 Alpha virt. eigenvalues --    3.12911   3.18004   3.20328   3.21537   3.22011
 Alpha virt. eigenvalues --    3.23791   3.25792   3.26988   3.31040   3.34298
 Alpha virt. eigenvalues --    3.35574   3.56983   3.57481   3.58320   3.88144
 Alpha virt. eigenvalues --    4.17032  21.65152  21.80484  21.80883  21.82320
 Alpha virt. eigenvalues --   21.84490  31.65541  43.10887
          Condensed to atoms (all electrons):
               1          2          3          4          5          6
     1  C    5.188369   0.228475  -0.082335  -0.112269  -0.081582   0.004001
     2  N    0.228475   6.548406   0.252771   0.228694   0.108590   0.005656
     3  C   -0.082335   0.252771   5.130159  -0.082271  -0.106918   0.015628
     4  C   -0.112269   0.228694  -0.082271   5.187690  -0.081513   0.003954
     5  C   -0.081582   0.108590  -0.106918  -0.081513   5.737098   0.056699
     6  C    0.004001   0.005656   0.015628   0.003954   0.056699   5.045868
     7  O   -0.000652   0.007560  -0.000172  -0.000651  -0.126678   0.318339
     8  H    0.393675  -0.018315   0.009277  -0.006311  -0.011246   0.001713
     9  H    0.379194  -0.014586  -0.006562   0.011559  -0.004343  -0.003057
    10  H    0.389942  -0.016802  -0.007337  -0.007196   0.008963   0.000480
    11  H   -0.009230  -0.016624   0.392106  -0.009196   0.010044  -0.000656
    12  H    0.009668  -0.017501   0.388971  -0.005576  -0.008383   0.000289
    13  H   -0.005533  -0.017516   0.388913   0.009671  -0.008386   0.000288
    14  H   -0.006325  -0.018274   0.009269   0.393621  -0.011236   0.001712
    15  H    0.011554  -0.014575  -0.006475   0.379126  -0.004357  -0.003075
    16  H   -0.007205  -0.016855  -0.007326   0.390030   0.008964   0.000479
    17  H    0.014746  -0.009554  -0.005879  -0.020438   0.363179  -0.017132
    18  H   -0.020449  -0.009519  -0.005857   0.014740   0.363106  -0.017145
    19  H   -0.007526  -0.002598  -0.000630   0.019469  -0.046026   0.413826
    20  H    0.019480  -0.002619  -0.000631  -0.007524  -0.046015   0.413810
    21  H    0.000002  -0.000569   0.000039   0.000002   0.013845  -0.032931
               7          8          9         10         11         12
     1  C   -0.000652   0.393675   0.379194   0.389942  -0.009230   0.009668
     2  N    0.007560  -0.018315  -0.014586  -0.016802  -0.016624  -0.017501
     3  C   -0.000172   0.009277  -0.006562  -0.007337   0.392106   0.388971
     4  C   -0.000651  -0.006311   0.011559  -0.007196  -0.009196  -0.005576
     5  C   -0.126678  -0.011246  -0.004343   0.008963   0.010044  -0.008383
     6  C    0.318339   0.001713  -0.003057   0.000480  -0.000656   0.000289
     7  O    7.977800  -0.000077   0.000237  -0.000007   0.000009  -0.000048
     8  H   -0.000077   0.464637  -0.019232  -0.019054   0.000100  -0.000418
     9  H    0.000237  -0.019232   0.471781  -0.018906   0.000207   0.000019
    10  H   -0.000007  -0.019054  -0.018906   0.465969   0.003030   0.000061
    11  H    0.000009   0.000100   0.000207   0.003030   0.466375  -0.019217
    12  H   -0.000048  -0.000418   0.000019   0.000061  -0.019217   0.470606
    13  H   -0.000048   0.000045   0.002145  -0.000057  -0.019182  -0.019784
    14  H   -0.000077   0.001840   0.000074  -0.000112   0.000100   0.000046
    15  H    0.000237   0.000073  -0.000481   0.000008   0.000197   0.002141
    16  H   -0.000007  -0.000112   0.000006   0.002415   0.003035  -0.000059
    17  H    0.017366  -0.000006  -0.000391  -0.000219   0.000100   0.003502
    18  H    0.017364   0.000502   0.004156  -0.000173   0.000099  -0.000437
    19  H   -0.047400   0.000157   0.000554  -0.000068   0.000016   0.000106
    20  H   -0.047389  -0.001275  -0.002640   0.000319   0.000016  -0.000046
    21  H    0.306438   0.000018  -0.000004  -0.000001  -0.000001   0.000000
              13         14         15         16         17         18
     1  C   -0.005533  -0.006325   0.011554  -0.007205   0.014746  -0.020449
     2  N   -0.017516  -0.018274  -0.014575  -0.016855  -0.009554  -0.009519
     3  C    0.388913   0.009269  -0.006475  -0.007326  -0.005879  -0.005857
     4  C    0.009671   0.393621   0.379126   0.390030  -0.020438   0.014740
     5  C   -0.008386  -0.011236  -0.004357   0.008964   0.363179   0.363106
     6  C    0.000288   0.001712  -0.003075   0.000479  -0.017132  -0.017145
     7  O   -0.000048  -0.000077   0.000237  -0.000007   0.017366   0.017364
     8  H    0.000045   0.001840   0.000073  -0.000112  -0.000006   0.000502
     9  H    0.002145   0.000074  -0.000481   0.000006  -0.000391   0.004156
    10  H   -0.000057  -0.000112   0.000008   0.002415  -0.000219  -0.000173
    11  H   -0.019182   0.000100   0.000197   0.003035   0.000100   0.000099
    12  H   -0.019784   0.000046   0.002141  -0.000059   0.003502  -0.000437
    13  H    0.470670  -0.000419   0.000021   0.000062  -0.000439   0.003499
    14  H   -0.000419   0.464791  -0.019263  -0.019113   0.000498  -0.000006
    15  H    0.000021  -0.019263   0.471448  -0.018810   0.004164  -0.000391
    16  H    0.000062  -0.019113  -0.018810   0.466225  -0.000171  -0.000220
    17  H   -0.000439   0.000498   0.004164  -0.000171   0.479548  -0.023667
    18  H    0.003499  -0.000006  -0.000391  -0.000220  -0.023667   0.479599
    19  H   -0.000046  -0.001275  -0.002639   0.000318  -0.012292   0.008515
    20  H    0.000106   0.000156   0.000554  -0.000068   0.008513  -0.012302
    21  H    0.000000   0.000018  -0.000004  -0.000001  -0.000810  -0.000811
              19         20         21
     1  C   -0.007526   0.019480   0.000002
     2  N   -0.002598  -0.002619  -0.000569
     3  C   -0.000630  -0.000631   0.000039
     4  C    0.019469  -0.007524   0.000002
     5  C   -0.046026  -0.046015   0.013845
     6  C    0.413826   0.413810  -0.032931
     7  O   -0.047400  -0.047389   0.306438
     8  H    0.000157  -0.001275   0.000018
     9  H    0.000554  -0.002640  -0.000004
    10  H   -0.000068   0.000319  -0.000001
    11  H    0.000016   0.000016  -0.000001
    12  H    0.000106  -0.000046   0.000000
    13  H   -0.000046   0.000106   0.000000
    14  H   -0.001275   0.000156   0.000018
    15  H   -0.002639   0.000554  -0.000004
    16  H    0.000318  -0.000068  -0.000001
    17  H   -0.012292   0.008513  -0.000810
    18  H    0.008515  -0.012302  -0.000811
    19  H    0.568397  -0.056513  -0.002645
    20  H   -0.056513   0.568461  -0.002641
    21  H   -0.002645  -0.002641   0.396771
 Mulliken charges:
               1
     1  C   -0.305999
     2  N   -0.204245
     3  C   -0.274740
     4  C   -0.305611
     5  C   -0.133803
     6  C   -0.208746
     7  O   -0.422144
     8  H    0.204010
     9  H    0.200269
    10  H    0.198746
    11  H    0.198672
    12  H    0.196059
    13  H    0.195988
    14  H    0.203976
    15  H    0.200546
    16  H    0.198412
    17  H    0.199382
    18  H    0.199395
    19  H    0.168299
    20  H    0.168249
    21  H    0.323285
 Sum of Mulliken charges =   1.00000
 Mulliken charges with hydrogens summed into heavy atoms:
               1
     1  C    0.297026
     2  N   -0.204245
     3  C    0.315979
     4  C    0.297323
     5  C    0.264975
     6  C    0.127802
     7  O   -0.098859
 Electronic spatial extent (au):  <R**2>=            966.3129
 Charge=              1.0000 electrons
 Dipole moment (field-independent basis, Debye):
    X=             -4.0223    Y=             -2.0727    Z=              0.0023  Tot=              4.5249
 Quadrupole moment (field-independent basis, Debye-Ang):
   XX=            -29.5834   YY=            -38.3238   ZZ=            -38.0329
   XY=             -6.6723   XZ=             -0.0016   YZ=             -0.0009
 Traceless Quadrupole moment (field-independent basis, Debye-Ang):
   XX=              5.7300   YY=             -3.0105   ZZ=             -2.7195
   XY=             -6.6723   XZ=             -0.0016   YZ=             -0.0009
 Octapole moment (field-independent basis, Debye-Ang**2):
  XXX=             13.6320  YYY=             -0.2712  ZZZ=              0.0198  XYY=             -5.5634
  XXY=            -19.0710  XXZ=              0.0026  XZZ=             -4.7089  YZZ=             -1.1436
  YYZ=              0.0003  XYZ=              0.0010
 Hexadecapole moment (field-independent basis, Debye-Ang**3):
 XXXX=           -563.6871 YYYY=           -218.0219 ZZZZ=           -194.9010 XXXY=            -58.8739
 XXXZ=              0.0054 YYYX=             -7.2261 YYYZ=             -0.0001 ZZZX=             -0.0235
 ZZZY=             -0.0056 XXYY=           -159.9751 XXZZ=           -162.1873 YYZZ=            -64.5006
 XXYZ=              0.0003 YYXZ=              0.0011 ZZXY=              0.3591
 N-N= 3.526285364884D+02 E-N=-1.458893193959D+03  KE= 3.270927469152D+02
 Unable to Open any file for archive entry.
 1\1\GINC-TCN1638\SP\RBP86\TZVP\C5H14N1O1(1+)\ELENAA\23-Feb-2021\0\\# B
 P86/TZVP SCRF=COSMORS geom=CHECKPOINT guess=CHECKPOINT\\COSMO-file for
  #OEYIOHPDSNJKLS-UHFFFAOYSA-N\\1,1\C,0,-1.3775385623,-0.442183378,-3.0
 49416792\N,0,-1.9228595545,0.2313629794,-1.8102535629\C,0,-2.776199272
 8,1.4083514463,-2.2306086639\C,0,-2.7849235874,-0.7461871302,-1.043568
 1357\C,0,-0.7969594821,0.7713593632,-0.9384352551\C,0,0.1854251168,-0.
 2713040275,-0.4071828034\O,0,1.1182403144,0.500246665,0.3642508338\H,0
 ,-0.8312467906,-1.3451244985,-2.7612967708\H,0,-0.7122712066,0.2574461
 462,-3.566975567\H,0,-2.2214251774,-0.7114816202,-3.6937081197\H,0,-3.
 5927877191,1.0385938896,-2.8596013709\H,0,-3.1771871445,1.8901966535,-
 1.3323907286\H,0,-2.1524276408,2.1115515974,-2.7929075807\H,0,-2.20004
 35558,-1.6407931182,-0.8104460718\H,0,-3.1294424935,-0.264677829,-0.12
 19474257\H,0,-3.6393416879,-1.0177597735,-1.6728498849\H,0,-1.27332337
 8,1.2897152676,-0.0961342598\H,0,-0.2564979559,1.5093595214,-1.5453483
 25\H,0,-0.3292360201,-1.0172556302,0.221978868\H,0,0.692542468,-0.7965
 432369,-1.2342983346\H,0,1.77578333,-0.1164732874,0.7321399507\\Versio
 n=ES64L-G16RevC.01\State=1-A\HF=-328.8814718\RMSD=3.487e-09\Dipole=-1.
 2562146,-0.7723237,-0.9973425\Quadrupole=2.6219737,-2.0021355,-0.61983
 81,-4.1501864,2.6281241,-2.9097089\PG=C01 [X(C5H14N1O1)]\\@
 The archive entry for this job was punched.


 THERE IS SOMETHING FASCINATING ABOUT SCIENCE.
 ONE GETS SUCH WHOLESALE CONJECTURE OUT OF SUCH TRIFLING INVESTMENTS.

                                                       -- MARK TWAIN
 Job cpu time:       0 days  0 hours  4 minutes 54.3 seconds.
 Elapsed time:       0 days  0 hours  0 minutes  9.6 seconds.
 File lengths (MBytes):  RWF=     43 Int=      0 D2E=      0 Chk=      7 Scr=      1
 Normal termination of Gaussian 16 at Tue Feb 23 00:12:32 2021.
