 Entering Gaussian System, Link 0=g16
 Input=OKIZCWYLBDKLSU-UHFFFAOYSA-M.gjf
 Output=OKIZCWYLBDKLSU-UHFFFAOYSA-M.log
 Initial command:
 /sw/arch/RedHatEnterpriseServer7/EB_production/2020/software/Gaussian/g16.c01/l1.exe "/scratch-local/elenaa.10684700/Gau-19487.inp" -scrdir="/scratch-local/elenaa.10684700/"
 Entering Link 1 = /sw/arch/RedHatEnterpriseServer7/EB_production/2020/software/Gaussian/g16.c01/l1.exe PID=     19489.
  
 Copyright (c) 1988-2019, Gaussian, Inc.  All Rights Reserved.
  
 This is part of the Gaussian(R) 16 program.  It is based on
 the Gaussian(R) 09 system (copyright 2009, Gaussian, Inc.),
 the Gaussian(R) 03 system (copyright 2003, Gaussian, Inc.),
 the Gaussian(R) 98 system (copyright 1998, Gaussian, Inc.),
 the Gaussian(R) 94 system (copyright 1995, Gaussian, Inc.),
 the Gaussian 92(TM) system (copyright 1992, Gaussian, Inc.),
 the Gaussian 90(TM) system (copyright 1990, Gaussian, Inc.),
 the Gaussian 88(TM) system (copyright 1988, Gaussian, Inc.),
 the Gaussian 86(TM) system (copyright 1986, Carnegie Mellon
 University), and the Gaussian 82(TM) system (copyright 1983,
 Carnegie Mellon University). Gaussian is a federally registered
 trademark of Gaussian, Inc.
  
 This software contains proprietary and confidential information,
 including trade secrets, belonging to Gaussian, Inc.
  
 This software is provided under written license and may be
 used, copied, transmitted, or stored only in accord with that
 written license.
  
 The following legend is applicable only to US Government
 contracts under FAR:
  
                    RESTRICTED RIGHTS LEGEND
  
 Use, reproduction and disclosure by the US Government is
 subject to restrictions as set forth in subparagraphs (a)
 and (c) of the Commercial Computer Software - Restricted
 Rights clause in FAR 52.227-19.
  
 Gaussian, Inc.
 340 Quinnipiac St., Bldg. 40, Wallingford CT 06492
  
  
 ---------------------------------------------------------------
 Warning -- This program may not be used in any manner that
 competes with the business of Gaussian, Inc. or will provide
 assistance to any competitor of Gaussian, Inc.  The licensee
 of this program is prohibited from giving any competitor of
 Gaussian, Inc. access to this program.  By using this program,
 the user acknowledges that Gaussian, Inc. is engaged in the
 business of creating and licensing software in the field of
 computational chemistry and represents and warrants to the
 licensee that it is not a competitor of Gaussian, Inc. and that
 it will not use this program in any manner prohibited above.
 ---------------------------------------------------------------
  

 Cite this work as:
 Gaussian 16, Revision C.01,
 M. J. Frisch, G. W. Trucks, H. B. Schlegel, G. E. Scuseria, 
 M. A. Robb, J. R. Cheeseman, G. Scalmani, V. Barone, 
 G. A. Petersson, H. Nakatsuji, X. Li, M. Caricato, A. V. Marenich, 
 J. Bloino, B. G. Janesko, R. Gomperts, B. Mennucci, H. P. Hratchian, 
 J. V. Ortiz, A. F. Izmaylov, J. L. Sonnenberg, D. Williams-Young, 
 F. Ding, F. Lipparini, F. Egidi, J. Goings, B. Peng, A. Petrone, 
 T. Henderson, D. Ranasinghe, V. G. Zakrzewski, J. Gao, N. Rega, 
 G. Zheng, W. Liang, M. Hada, M. Ehara, K. Toyota, R. Fukuda, 
 J. Hasegawa, M. Ishida, T. Nakajima, Y. Honda, O. Kitao, H. Nakai, 
 T. Vreven, K. Throssell, J. A. Montgomery, Jr., J. E. Peralta, 
 F. Ogliaro, M. J. Bearpark, J. J. Heyd, E. N. Brothers, K. N. Kudin, 
 V. N. Staroverov, T. A. Keith, R. Kobayashi, J. Normand, 
 K. Raghavachari, A. P. Rendell, J. C. Burant, S. S. Iyengar, 
 J. Tomasi, M. Cossi, J. M. Millam, M. Klene, C. Adamo, R. Cammi, 
 J. W. Ochterski, R. L. Martin, K. Morokuma, O. Farkas, 
 J. B. Foresman, and D. J. Fox, Gaussian, Inc., Wallingford CT, 2019.
 
 ******************************************
 Gaussian 16:  ES64L-G16RevC.01  3-Jul-2019
                21-Aug-2021 
 ******************************************
 %chk=OKIZCWYLBDKLSU-UHFFFAOYSA-M.chk
 %NProcShared=24
 Will use up to   24 processors via shared memory.
 -------------------------------------------------------------
 #P BP86/TZVP EmpiricalDispersion=GD3 SCRF=(Solvent=Water) Opt
 -------------------------------------------------------------
 1/18=20,19=15,26=3,38=1/1,3;
 2/9=110,12=2,17=6,18=5,40=1/2;
 3/5=19,7=101,11=2,25=1,30=1,70=2201,71=1,72=1,74=404,124=31/1,2,3;
 4//1;
 5/5=2,38=5,53=1/2;
 6/7=2,8=2,9=2,10=2,28=1/1;
 7//1,2,3,16;
 1/18=20,19=15,26=3/3(2);
 2/9=110/2;
 99//99;
 2/9=110/2;
 3/5=19,7=101,11=2,25=1,30=1,70=2205,71=1,72=1,74=404,124=31/1,2,3;
 4/5=5,16=3,69=1/1;
 5/5=2,38=5,53=1/2;
 7//1,2,3,16;
 1/18=20,19=15,26=3/3(-5);
 2/9=110/2;
 6/7=2,8=2,9=2,10=2,19=2,28=1/1;
 99/9=1/99;
 Leave Link    1 at Sat Aug 21 09:32:11 2021, MaxMem=           0 cpu:               2.2 elap:               0.1
 (Enter /sw/arch/RedHatEnterpriseServer7/EB_production/2020/software/Gaussian/g16.c01/l101.exe)
 -------------------------------------
 Particle #OKIZCWYLBDKLSU-UHFFFAOYSA-M
 -------------------------------------
 Symbolic Z-matrix:
 Charge =  0 Multiplicity = 1
 C                     0.02902   1.31967   0.5734 
 N                     1.47482   1.2983    0.25743 
 C                     1.74376   0.43353  -0.91324 
 C                     1.98188   2.66926   0.02511 
 C                     2.19396   0.73186   1.42455 
 Cl                   -0.32476   2.71575  -2.66316 
 H                    -0.3499    0.29317   0.77829 
 H                    -0.56782   1.73197  -0.25759 
 H                    -0.17396   1.94519   1.4716 
 H                     2.83365   0.39092  -1.1359 
 H                     1.39067  -0.60632  -0.73076 
 H                     1.23557   0.80004  -1.82107 
 H                     1.80833   3.31508   0.91508 
 H                     1.486     3.15137  -0.83421 
 H                     3.07535   2.6603   -0.18344 
 H                     2.02596   1.34611   2.33814 
 H                     1.85021  -0.30408   1.64555 
 H                     3.29161   0.69205   1.24086 
 
 Add virtual bond connecting atoms H8         and Cl6        Dist= 4.93D+00.
 Add virtual bond connecting atoms H12        and Cl6        Dist= 4.93D+00.
 Add virtual bond connecting atoms H14        and Cl6        Dist= 4.93D+00.
 ITRead=  0  0  0  0  0  0  0  0  0  0  0  0  0  0  0  0  0  0
 MicOpt= -1 -1 -1 -1 -1 -1 -1 -1 -1 -1 -1 -1 -1 -1 -1 -1 -1 -1
 NAtoms=     18 NQM=       18 NQMF=       0 NMMI=      0 NMMIF=      0
                NMic=       0 NMicF=      0.
                    Isotopes and Nuclear Properties:
 (Nuclear quadrupole moments (NQMom) in fm**2, nuclear magnetic moments (NMagM)
  in nuclear magnetons)

  Atom         1           2           3           4           5           6           7           8           9          10
 IAtWgt=          12          14          12          12          12          35           1           1           1           1
 AtmWgt=  12.0000000  14.0030740  12.0000000  12.0000000  12.0000000  34.9688527   1.0078250   1.0078250   1.0078250   1.0078250
 NucSpn=           0           2           0           0           0           3           1           1           1           1
 AtZEff=  -0.0000000  -0.0000000  -0.0000000  -0.0000000  -0.0000000  -0.0000000  -0.0000000  -0.0000000  -0.0000000  -0.0000000
 NQMom=    0.0000000   2.0440000   0.0000000   0.0000000   0.0000000  -8.1650000   0.0000000   0.0000000   0.0000000   0.0000000
 NMagM=    0.0000000   0.4037610   0.0000000   0.0000000   0.0000000   0.8218740   2.7928460   2.7928460   2.7928460   2.7928460
 AtZNuc=   6.0000000   7.0000000   6.0000000   6.0000000   6.0000000  17.0000000   1.0000000   1.0000000   1.0000000   1.0000000

  Atom        11          12          13          14          15          16          17          18
 IAtWgt=           1           1           1           1           1           1           1           1
 AtmWgt=   1.0078250   1.0078250   1.0078250   1.0078250   1.0078250   1.0078250   1.0078250   1.0078250
 NucSpn=           1           1           1           1           1           1           1           1
 AtZEff=  -0.0000000  -0.0000000  -0.0000000  -0.0000000  -0.0000000  -0.0000000  -0.0000000  -0.0000000
 NQMom=    0.0000000   0.0000000   0.0000000   0.0000000   0.0000000   0.0000000   0.0000000   0.0000000
 NMagM=    2.7928460   2.7928460   2.7928460   2.7928460   2.7928460   2.7928460   2.7928460   2.7928460
 AtZNuc=   1.0000000   1.0000000   1.0000000   1.0000000   1.0000000   1.0000000   1.0000000   1.0000000
 Leave Link  101 at Sat Aug 21 09:32:11 2021, MaxMem=   104857600 cpu:               1.9 elap:               0.1
 (Enter /sw/arch/RedHatEnterpriseServer7/EB_production/2020/software/Gaussian/g16.c01/l103.exe)

 GradGradGradGradGradGradGradGradGradGradGradGradGradGradGradGradGradGrad
 Berny optimization.
 Initialization pass.
                           ----------------------------
                           !    Initial Parameters    !
                           ! (Angstroms and Degrees)  !
 --------------------------                            --------------------------
 ! Name  Definition              Value          Derivative Info.                !
 --------------------------------------------------------------------------------
 ! R1    R(1,2)                  1.4801         estimate D2E/DX2                !
 ! R2    R(1,7)                  1.1132         estimate D2E/DX2                !
 ! R3    R(1,8)                  1.1031         estimate D2E/DX2                !
 ! R4    R(1,9)                  1.1132         estimate D2E/DX2                !
 ! R5    R(2,3)                  1.4801         estimate D2E/DX2                !
 ! R6    R(2,4)                  1.4801         estimate D2E/DX2                !
 ! R7    R(2,5)                  1.4833         estimate D2E/DX2                !
 ! R8    R(3,10)                 1.1132         estimate D2E/DX2                !
 ! R9    R(3,11)                 1.1132         estimate D2E/DX2                !
 ! R10   R(3,12)                 1.1031         estimate D2E/DX2                !
 ! R11   R(4,13)                 1.1132         estimate D2E/DX2                !
 ! R12   R(4,14)                 1.1031         estimate D2E/DX2                !
 ! R13   R(4,15)                 1.1132         estimate D2E/DX2                !
 ! R14   R(5,16)                 1.1136         estimate D2E/DX2                !
 ! R15   R(5,17)                 1.1136         estimate D2E/DX2                !
 ! R16   R(5,18)                 1.1136         estimate D2E/DX2                !
 ! R17   R(6,8)                  2.6103         estimate D2E/DX2                !
 ! R18   R(6,12)                 2.6103         estimate D2E/DX2                !
 ! R19   R(6,14)                 2.6103         estimate D2E/DX2                !
 ! A1    A(2,1,7)              111.0064         estimate D2E/DX2                !
 ! A2    A(2,1,8)              111.9077         estimate D2E/DX2                !
 ! A3    A(2,1,9)              111.0065         estimate D2E/DX2                !
 ! A4    A(7,1,8)              107.4066         estimate D2E/DX2                !
 ! A5    A(7,1,9)              107.9125         estimate D2E/DX2                !
 ! A6    A(8,1,9)              107.407          estimate D2E/DX2                !
 ! A7    A(1,2,3)              110.7807         estimate D2E/DX2                !
 ! A8    A(1,2,4)              110.7808         estimate D2E/DX2                !
 ! A9    A(1,2,5)              108.1277         estimate D2E/DX2                !
 ! A10   A(3,2,4)              110.7807         estimate D2E/DX2                !
 ! A11   A(3,2,5)              108.1276         estimate D2E/DX2                !
 ! A12   A(4,2,5)              108.1277         estimate D2E/DX2                !
 ! A13   A(2,3,10)             111.0065         estimate D2E/DX2                !
 ! A14   A(2,3,11)             111.0065         estimate D2E/DX2                !
 ! A15   A(2,3,12)             111.9076         estimate D2E/DX2                !
 ! A16   A(10,3,11)            107.9125         estimate D2E/DX2                !
 ! A17   A(10,3,12)            107.4068         estimate D2E/DX2                !
 ! A18   A(11,3,12)            107.4068         estimate D2E/DX2                !
 ! A19   A(2,4,13)             111.0065         estimate D2E/DX2                !
 ! A20   A(2,4,14)             111.9077         estimate D2E/DX2                !
 ! A21   A(2,4,15)             111.0063         estimate D2E/DX2                !
 ! A22   A(13,4,14)            107.4068         estimate D2E/DX2                !
 ! A23   A(13,4,15)            107.9124         estimate D2E/DX2                !
 ! A24   A(14,4,15)            107.407          estimate D2E/DX2                !
 ! A25   A(2,5,16)             111.2062         estimate D2E/DX2                !
 ! A26   A(2,5,17)             111.2063         estimate D2E/DX2                !
 ! A27   A(2,5,18)             111.2062         estimate D2E/DX2                !
 ! A28   A(16,5,17)            107.6819         estimate D2E/DX2                !
 ! A29   A(16,5,18)            107.6818         estimate D2E/DX2                !
 ! A30   A(17,5,18)            107.6819         estimate D2E/DX2                !
 ! A31   A(8,6,12)              58.7861         estimate D2E/DX2                !
 ! A32   A(8,6,14)              58.7869         estimate D2E/DX2                !
 ! A33   A(12,6,14)             58.787          estimate D2E/DX2                !
 ! A34   A(1,8,6)              141.6975         estimate D2E/DX2                !
 ! A35   A(3,12,6)             141.6974         estimate D2E/DX2                !
 ! A36   A(4,14,6)             141.6976         estimate D2E/DX2                !
 ! D1    D(7,1,2,3)             58.3096         estimate D2E/DX2                !
 ! D2    D(7,1,2,4)           -178.331          estimate D2E/DX2                !
 ! D3    D(7,1,2,5)            -60.0106         estimate D2E/DX2                !
 ! D4    D(8,1,2,3)            -61.678          estimate D2E/DX2                !
 ! D5    D(8,1,2,4)             61.6814         estimate D2E/DX2                !
 ! D6    D(8,1,2,5)           -179.9982         estimate D2E/DX2                !
 ! D7    D(9,1,2,3)            178.3338         estimate D2E/DX2                !
 ! D8    D(9,1,2,4)            -58.3068         estimate D2E/DX2                !
 ! D9    D(9,1,2,5)             60.0136         estimate D2E/DX2                !
 ! D10   D(2,1,8,6)             -0.004          estimate D2E/DX2                !
 ! D11   D(7,1,8,6)           -122.0766         estimate D2E/DX2                !
 ! D12   D(9,1,8,6)            122.0691         estimate D2E/DX2                !
 ! D13   D(1,2,3,10)          -178.333          estimate D2E/DX2                !
 ! D14   D(1,2,3,11)           -58.3087         estimate D2E/DX2                !
 ! D15   D(1,2,3,12)            61.6792         estimate D2E/DX2                !
 ! D16   D(4,2,3,10)            58.3076         estimate D2E/DX2                !
 ! D17   D(4,2,3,11)           178.3318         estimate D2E/DX2                !
 ! D18   D(4,2,3,12)           -61.6803         estimate D2E/DX2                !
 ! D19   D(5,2,3,10)           -60.0127         estimate D2E/DX2                !
 ! D20   D(5,2,3,11)            60.0115         estimate D2E/DX2                !
 ! D21   D(5,2,3,12)           179.9994         estimate D2E/DX2                !
 ! D22   D(1,2,4,13)            58.3093         estimate D2E/DX2                !
 ! D23   D(1,2,4,14)           -61.6787         estimate D2E/DX2                !
 ! D24   D(1,2,4,15)           178.3333         estimate D2E/DX2                !
 ! D25   D(3,2,4,13)          -178.3313         estimate D2E/DX2                !
 ! D26   D(3,2,4,14)            61.6807         estimate D2E/DX2                !
 ! D27   D(3,2,4,15)           -58.3073         estimate D2E/DX2                !
 ! D28   D(5,2,4,13)           -60.0111         estimate D2E/DX2                !
 ! D29   D(5,2,4,14)          -179.9991         estimate D2E/DX2                !
 ! D30   D(5,2,4,15)            60.0129         estimate D2E/DX2                !
 ! D31   D(1,2,5,16)           -60.0            estimate D2E/DX2                !
 ! D32   D(1,2,5,17)            60.0            estimate D2E/DX2                !
 ! D33   D(1,2,5,18)          -179.9998         estimate D2E/DX2                !
 ! D34   D(3,2,5,16)          -179.9999         estimate D2E/DX2                !
 ! D35   D(3,2,5,17)           -59.9999         estimate D2E/DX2                !
 ! D36   D(3,2,5,18)            60.0002         estimate D2E/DX2                !
 ! D37   D(4,2,5,16)            60.0001         estimate D2E/DX2                !
 ! D38   D(4,2,5,17)          -179.9998         estimate D2E/DX2                !
 ! D39   D(4,2,5,18)           -59.9997         estimate D2E/DX2                !
 ! D40   D(2,3,12,6)             0.0013         estimate D2E/DX2                !
 ! D41   D(10,3,12,6)         -122.0716         estimate D2E/DX2                !
 ! D42   D(11,3,12,6)          122.0742         estimate D2E/DX2                !
 ! D43   D(2,4,14,6)            -0.0019         estimate D2E/DX2                !
 ! D44   D(13,4,14,6)         -122.0748         estimate D2E/DX2                !
 ! D45   D(15,4,14,6)          122.0709         estimate D2E/DX2                !
 ! D46   D(12,6,8,1)            35.0244         estimate D2E/DX2                !
 ! D47   D(14,6,8,1)           -35.0178         estimate D2E/DX2                !
 ! D48   D(8,6,12,3)           -35.0226         estimate D2E/DX2                !
 ! D49   D(14,6,12,3)           35.0195         estimate D2E/DX2                !
 ! D50   D(8,6,14,4)            35.0217         estimate D2E/DX2                !
 ! D51   D(12,6,14,4)          -35.0191         estimate D2E/DX2                !
 --------------------------------------------------------------------------------
 Trust Radius=3.00D-01 FncErr=1.00D-07 GrdErr=1.00D-06 EigMax=2.50D+02 EigMin=1.00D-04
 Number of steps in this run=    108 maximum allowed number of steps=    108.
 GradGradGradGradGradGradGradGradGradGradGradGradGradGradGradGradGradGrad

 Leave Link  103 at Sat Aug 21 09:32:11 2021, MaxMem=   104857600 cpu:               0.2 elap:               0.0
 (Enter /sw/arch/RedHatEnterpriseServer7/EB_production/2020/software/Gaussian/g16.c01/l202.exe)
                          Input orientation:                          
 ---------------------------------------------------------------------
 Center     Atomic      Atomic             Coordinates (Angstroms)
 Number     Number       Type             X           Y           Z
 ---------------------------------------------------------------------
      1          6           0        0.029017    1.319669    0.573400
      2          7           0        1.474815    1.298297    0.257432
      3          6           0        1.743760    0.433527   -0.913239
      4          6           0        1.981879    2.669258    0.025106
      5          6           0        2.193957    0.731857    1.424553
      6         17           0       -0.324757    2.715750   -2.663155
      7          1           0       -0.349896    0.293174    0.778293
      8          1           0       -0.567818    1.731971   -0.257589
      9          1           0       -0.173961    1.945192    1.471604
     10          1           0        2.833646    0.390915   -1.135904
     11          1           0        1.390673   -0.606316   -0.730757
     12          1           0        1.235570    0.800040   -1.821071
     13          1           0        1.808333    3.315081    0.915075
     14          1           0        1.485997    3.151366   -0.834205
     15          1           0        3.075350    2.660302   -0.183436
     16          1           0        2.025959    1.346109    2.338140
     17          1           0        1.850207   -0.304081    1.645548
     18          1           0        3.291609    0.692053    1.240855
 ---------------------------------------------------------------------
                    Distance matrix (angstroms):
                    1          2          3          4          5
     1  C    0.000000
     2  N    1.480076   0.000000
     3  C    2.436326   1.480077   0.000000
     4  C    2.436326   1.480075   2.436326   0.000000
     5  C    2.399364   1.483304   2.399364   2.399365   0.000000
     6  Cl   3.542525   3.711800   3.542529   3.542524   5.195104
     7  H    1.113215   2.147356   2.695250   3.413245   2.661068
     8  H    1.103063   2.150737   2.731158   2.731186   3.384853
     9  H    1.113216   2.147359   3.413248   2.695232   2.661096
    10  H    3.413246   2.147359   1.113215   2.695236   2.661087
    11  H    2.695246   2.147358   1.113213   3.413245   2.661077
    12  H    2.731167   2.150738   1.103063   2.731176   3.384853
    13  H    2.695251   2.147358   3.413247   1.113216   2.661075
    14  H    2.731164   2.150735   2.731179   1.103061   3.384851
    15  H    3.413245   2.147355   2.695231   1.113216   2.661087
    16  H    2.665105   2.152996   3.388791   2.665106   1.113629
    17  H    2.665108   2.152998   2.665106   3.388792   1.113629
    18  H    3.388791   2.152996   2.665107   2.665104   1.113629
                    6          7          8          9         10
     6  Cl   0.000000
     7  H    4.208690   0.000000
     8  H    2.610296   1.786247   0.000000
     9  H    4.208650   1.800221   1.786252   0.000000
    10  H    4.208665   3.715998   3.760296   4.273239   0.000000
    11  H    4.208680   2.473033   3.086610   3.716001   1.800218
    12  H    2.610301   3.086634   2.562261   3.760300   1.786249
    13  H    4.208682   3.715990   3.086660   2.473016   3.715983
    14  H    2.610297   3.760308   2.562289   3.086595   3.086628
    15  H    4.208659   4.273234   3.760315   3.715987   2.473001
    16  H    5.693394   3.030921   3.689767   2.439146   3.692389
    17  H    5.693397   2.439118   3.689754   3.030964   3.030948
    18  H    5.693395   3.692374   4.268717   3.692395   2.439139
                   11         12         13         14         15
    11  H    0.000000
    12  H    1.786247   0.000000
    13  H    4.273237   3.760317   0.000000
    14  H    3.760314   2.562294   1.786248   0.000000
    15  H    3.715978   3.086618   1.800221   1.786249   0.000000
    16  H    3.692381   4.268717   2.439124   3.689754   3.030952
    17  H    2.439127   3.689757   3.692381   4.268716   3.692387
    18  H    3.030936   3.689763   3.030927   3.689760   2.439134
                   16         17         18
    16  H    0.000000
    17  H    1.798249   0.000000
    18  H    1.798247   1.798249   0.000000
 This structure is nearly, but not quite of a higher symmetry.
 Consider Symm=Loose if the higher symmetry is desired.
 Stoichiometry    C4H12ClN
 Framework group  C1[X(C4H12ClN)]
 Deg. of freedom    48
 Full point group                 C1      NOp   1
 Largest Abelian subgroup         C1      NOp   1
 Largest concise Abelian subgroup C1      NOp   1
                         Standard orientation:                         
 ---------------------------------------------------------------------
 Center     Atomic      Atomic             Coordinates (Angstroms)
 Number     Number       Type             X           Y           Z
 ---------------------------------------------------------------------
      1          6           0        0.151115    0.174572    1.501516
      2          7           0       -0.416883   -0.785308    0.528566
      3          6           0       -1.487003   -0.149839   -0.272466
      4          6           0        0.642036   -1.331774   -0.349323
      5          6           0       -1.014713   -1.911473    1.286552
      6         17           0        1.079118    2.032793   -1.368208
      7          1           0       -0.637342    0.565350    2.183334
      8          1           0        0.614467    1.041791    1.001531
      9          1           0        0.935838   -0.307962    2.126513
     10          1           0       -1.937381   -0.876973   -0.984984
     11          1           0       -2.300137    0.236065    0.382618
     12          1           0       -1.108315    0.700599   -0.864157
     13          1           0        1.434124   -1.837019    0.247815
     14          1           0        1.130805   -0.542447   -0.944981
     15          1           0        0.223708   -2.076700   -1.063001
     16          1           0       -0.250223   -2.428290    1.909951
     17          1           0       -1.821665   -1.555908    1.966677
     18          1           0       -1.459313   -2.667740    0.600577
 ---------------------------------------------------------------------
 Rotational constants (GHZ):           4.6391793           1.1540879           1.1540879
 Leave Link  202 at Sat Aug 21 09:32:11 2021, MaxMem=   104857600 cpu:               0.5 elap:               0.1
 (Enter /sw/arch/RedHatEnterpriseServer7/EB_production/2020/software/Gaussian/g16.c01/l301.exe)
 Standard basis: TZVP (5D, 7F)
 Ernie: Thresh=  0.10000D-02 Tol=  0.10000D-05 Strict=F.
 There are   195 symmetry adapted cartesian basis functions of A   symmetry.
 There are   189 symmetry adapted basis functions of A   symmetry.
   189 basis functions,   318 primitive gaussians,   195 cartesian basis functions
    30 alpha electrons       30 beta electrons
       nuclear repulsion energy       315.1601557466 Hartrees.
 IExCor=  404 DFT=T Ex=B Corr=P86 ExCW=0 ScaHFX=  0.000000
 ScaDFX=  1.000000  1.000000  1.000000  1.000000 ScalE2=  1.000000  1.000000
 IRadAn=      5 IRanWt=     -1 IRanGd=            0 ICorTp=0 IEmpDi=131
 NAtoms=   18 NActive=   18 NUniq=   18 SFac= 1.00D+00 NAtFMM=   60 NAOKFM=F Big=F
 Integral buffers will be    131072 words long.
 Raffenetti 2 integral format.
 Two-electron integral symmetry is turned on.
 R6Disp:  Grimme-D3 Dispersion energy=       -0.0194179176 Hartrees.
 Nuclear repulsion after empirical dispersion term =      315.1407378289 Hartrees.
 ------------------------------------------------------------------------------
 Polarizable Continuum Model (PCM)
 =================================
 Model                : PCM.
 Atomic radii         : UFF (Universal Force Field).
 Polarization charges : Total charges.
 Charge compensation  : None.
 Solution method      : On-the-fly selection.
 Cavity type          : Scaled VdW (van der Waals Surface) (Alpha=1.100).
 Cavity algorithm     : GePol (No added spheres)
                        Default sphere list used, NSphG=   18.
                        Lebedev-Laikov grids with approx.  5.0 points / Ang**2.
                        Smoothing algorithm: York/Karplus (Gamma=1.0000).
                        Polarization charges: spherical gaussians, with
                                              point-specific exponents (IZeta= 3).
                        Self-potential: point-specific (ISelfS= 7).
                        Self-field    : sphere-specific E.n sum rule (ISelfD= 2).
 1st derivatives      : Analytical E(r).r(x)/FMM algorithm (CHGder, D1EAlg=3).
                        Cavity 1st derivative terms included.
 Solvent              : Water, Eps=  78.355300 Eps(inf)=   1.777849
 ------------------------------------------------------------------------------
 Spheres list:
 ISph  on   Nord     Re0    Alpha      Xe            Ye            Ze
    1   C      1    1.9255  1.100      0.151115      0.174572      1.501516
    2   N      2    1.8300  1.100     -0.416883     -0.785308      0.528566
    3   C      3    1.9255  1.100     -1.487003     -0.149839     -0.272466
    4   C      4    1.9255  1.100      0.642036     -1.331774     -0.349323
    5   C      5    1.9255  1.100     -1.014713     -1.911473      1.286552
    6  Cl      6    1.9735  1.100      1.079118      2.032793     -1.368208
    7   H      7    1.4430  1.100     -0.637342      0.565350      2.183334
    8   H      8    1.4430  1.100      0.614467      1.041791      1.001531
    9   H      9    1.4430  1.100      0.935838     -0.307962      2.126513
   10   H     10    1.4430  1.100     -1.937381     -0.876973     -0.984984
   11   H     11    1.4430  1.100     -2.300137      0.236065      0.382618
   12   H     12    1.4430  1.100     -1.108315      0.700599     -0.864157
   13   H     13    1.4430  1.100      1.434124     -1.837019      0.247815
   14   H     14    1.4430  1.100      1.130805     -0.542447     -0.944981
   15   H     15    1.4430  1.100      0.223708     -2.076700     -1.063001
   16   H     16    1.4430  1.100     -0.250223     -2.428290      1.909951
   17   H     17    1.4430  1.100     -1.821665     -1.555908      1.966677
   18   H     18    1.4430  1.100     -1.459313     -2.667740      0.600577
 ------------------------------------------------------------------------------
 GePol: Number of generator spheres                  =      18
 GePol: Total number of spheres                      =      18
 GePol: Number of exposed spheres                    =      17 ( 94.44%)
 GePol: Number of points                             =    1308
 GePol: Average weight of points                     =       0.14
 GePol: Minimum weight of points                     =   0.29D-11
 GePol: Maximum weight of points                     =    0.21616
 GePol: Number of points with low weight             =      70
 GePol: Fraction of low-weight points (<1% of avg)   =       5.35%
 GePol: Cavity surface area                          =    186.990 Ang**2
 GePol: Cavity volume                                =    184.866 Ang**3
 Leave Link  301 at Sat Aug 21 09:32:12 2021, MaxMem=   104857600 cpu:               1.6 elap:               0.1
 (Enter /sw/arch/RedHatEnterpriseServer7/EB_production/2020/software/Gaussian/g16.c01/l302.exe)
 NPDir=0 NMtPBC=     1 NCelOv=     1 NCel=       1 NClECP=     1 NCelD=      1
         NCelK=      1 NCelE2=     1 NClLst=     1 CellRange=     0.0.
 One-electron integrals computed using PRISM.
 One-electron integral symmetry used in STVInt
 NBasis=   189 RedAO= T EigKep=  7.77D-04  NBF=   189
 NBsUse=   189 1.00D-06 EigRej= -1.00D+00 NBFU=   189
 Precomputing XC quadrature grid using
 IXCGrd= 4 IRadAn=           5 IRanWt=          -1 IRanGd=           0 AccXCQ= 0.00D+00.
 Generated NRdTot=       0 NPtTot=           0 NUsed=           0 NTot=          32
 NSgBfM=   194   194   194   194   194 MxSgAt=    18 MxSgA2=    18.
 Leave Link  302 at Sat Aug 21 09:32:13 2021, MaxMem=   104857600 cpu:               4.2 elap:               0.2
 (Enter /sw/arch/RedHatEnterpriseServer7/EB_production/2020/software/Gaussian/g16.c01/l303.exe)
 DipDrv:  MaxL=1.
 Leave Link  303 at Sat Aug 21 09:32:13 2021, MaxMem=   104857600 cpu:               1.5 elap:               0.1
 (Enter /sw/arch/RedHatEnterpriseServer7/EB_production/2020/software/Gaussian/g16.c01/l401.exe)
 ExpMin= 9.52D-02 ExpMax= 6.95D+04 ExpMxC= 2.37D+03 IAcc=3 IRadAn=         5 AccDes= 0.00D+00
 Harris functional with IExCor=  404 and IRadAn=       5 diagonalized for initial guess.
 HarFok:  IExCor=  404 AccDes= 0.00D+00 IRadAn=         5 IDoV= 1 UseB2=F ITyADJ=14
 ICtDFT=  3500011 ScaDFX=  1.000000  1.000000  1.000000  1.000000
 FoFCou: FMM=F IPFlag=           0 FMFlag=      100000 FMFlg1=           0
         NFxFlg=           0 DoJE=T BraDBF=F KetDBF=T FulRan=T
         wScrn=  0.000000 ICntrl=       500 IOpCl=  0 I1Cent=   200000004 NGrid=           0
         NMat0=    1 NMatS0=      1 NMatT0=    0 NMatD0=    1 NMtDS0=    0 NMtDT0=    0
 Petite list used in FoFCou.
 Harris En= -674.781581982296    
 JPrj=0 DoOrth=F DoCkMO=F.
 Leave Link  401 at Sat Aug 21 09:32:14 2021, MaxMem=   104857600 cpu:              10.0 elap:               0.5
 (Enter /sw/arch/RedHatEnterpriseServer7/EB_production/2020/software/Gaussian/g16.c01/l502.exe)
 Integral symmetry usage will be decided dynamically.
 Closed shell SCF:
 Using DIIS extrapolation, IDIIS=  1040.
 NGot=   104857600 LenX=   104774270 LenY=   104735804
 Requested convergence on RMS density matrix=1.00D-08 within 128 cycles.
 Requested convergence on MAX density matrix=1.00D-06.
 Requested convergence on             energy=1.00D-06.
 No special actions if energy rises.
 Fock matrices will be formed incrementally for  20 cycles.

 Cycle   1  Pass 1  IDiag  1:
 FoFJK:  IHMeth= 1 ICntrl=     500 DoSepK=F KAlg= 0 I1Cent=           0 FoldK=F
 IRaf= 970000000 NMat=       1 IRICut=       1 DoRegI=T DoRafI=F ISym2E= 0 IDoP0=0 IntGTp=1.
 FoFCou: FMM=F IPFlag=           0 FMFlag=      100000 FMFlg1=           0
         NFxFlg=           0 DoJE=T BraDBF=F KetDBF=F FulRan=T
         wScrn=  0.000000 ICntrl=       500 IOpCl=  0 I1Cent=           0 NGrid=           0
         NMat0=    1 NMatS0=      1 NMatT0=    0 NMatD0=    1 NMtDS0=    0 NMtDT0=    0
 Symmetry not used in FoFCou.
 Inv3:  Mode=1 IEnd=     5132592.
 Iteration    1 A*A^-1 deviation from unit magnitude is 2.55D-15 for    760.
 Iteration    1 A*A^-1 deviation from orthogonality  is 1.55D-15 for   1102     25.
 Iteration    1 A^-1*A deviation from unit magnitude is 2.89D-15 for    220.
 Iteration    1 A^-1*A deviation from orthogonality  is 2.40D-15 for    914    367.
 E= -674.606199549142    
 DIIS: error= 2.84D-02 at cycle   1 NSaved=   1.
 NSaved= 1 IEnMin= 1 EnMin= -674.606199549142     IErMin= 1 ErrMin= 2.84D-02
 ErrMax= 2.84D-02  0.00D+00 EMaxC= 1.00D-01 BMatC= 1.61D-01 BMatP= 1.61D-01
 IDIUse=3 WtCom= 7.16D-01 WtEn= 2.84D-01
 Coeff-Com:  0.100D+01
 Coeff-En:   0.100D+01
 Coeff:      0.100D+01
 Gap=     0.181 Goal=   None    Shift=    0.000
 GapD=    0.181 DampG=1.000 DampE=0.500 DampFc=0.5000 IDamp=-1.
 Damping current iteration by 5.00D-01
 RMSDP=4.17D-03 MaxDP=1.08D-01              OVMax= 1.44D-01

 Cycle   2  Pass 1  IDiag  1:
 RMSU=  2.08D-03    CP:  9.91D-01
 E= -674.656590973593     Delta-E=       -0.050391424451 Rises=F Damp=T
 DIIS: error= 1.04D-02 at cycle   2 NSaved=   2.
 NSaved= 2 IEnMin= 2 EnMin= -674.656590973593     IErMin= 2 ErrMin= 1.04D-02
 ErrMax= 1.04D-02  0.00D+00 EMaxC= 1.00D-01 BMatC= 2.11D-02 BMatP= 1.61D-01
 IDIUse=3 WtCom= 8.96D-01 WtEn= 1.04D-01
 Coeff-Com:  0.185D+00 0.815D+00
 Coeff-En:   0.286D+00 0.714D+00
 Coeff:      0.196D+00 0.804D+00
 Gap=     0.199 Goal=   None    Shift=    0.000
 RMSDP=6.18D-04 MaxDP=2.35D-02 DE=-5.04D-02 OVMax= 9.17D-02

 Cycle   3  Pass 1  IDiag  1:
 RMSU=  6.17D-04    CP:  9.92D-01  1.01D+00
 E= -674.747572340533     Delta-E=       -0.090981366939 Rises=F Damp=F
 DIIS: error= 6.08D-03 at cycle   3 NSaved=   3.
 NSaved= 3 IEnMin= 3 EnMin= -674.747572340533     IErMin= 3 ErrMin= 6.08D-03
 ErrMax= 6.08D-03  0.00D+00 EMaxC= 1.00D-01 BMatC= 4.61D-03 BMatP= 2.11D-02
 IDIUse=3 WtCom= 9.39D-01 WtEn= 6.08D-02
 Coeff-Com:  0.358D-01 0.293D+00 0.671D+00
 Coeff-En:   0.000D+00 0.000D+00 0.100D+01
 Coeff:      0.336D-01 0.275D+00 0.691D+00
 Gap=     0.206 Goal=   None    Shift=    0.000
 RMSDP=4.24D-04 MaxDP=1.25D-02 DE=-9.10D-02 OVMax= 1.74D-02

 Cycle   4  Pass 1  IDiag  1:
 RMSU=  3.05D-04    CP:  9.95D-01  8.97D-01  7.09D-01
 E= -674.748827113237     Delta-E=       -0.001254772705 Rises=F Damp=F
 DIIS: error= 3.76D-03 at cycle   4 NSaved=   4.
 NSaved= 4 IEnMin= 4 EnMin= -674.748827113237     IErMin= 4 ErrMin= 3.76D-03
 ErrMax= 3.76D-03  0.00D+00 EMaxC= 1.00D-01 BMatC= 2.67D-03 BMatP= 4.61D-03
 IDIUse=3 WtCom= 9.62D-01 WtEn= 3.76D-02
 Coeff-Com:  0.104D-01 0.947D-01 0.437D+00 0.458D+00
 Coeff-En:   0.000D+00 0.000D+00 0.406D+00 0.594D+00
 Coeff:      0.100D-01 0.912D-01 0.436D+00 0.463D+00
 Gap=     0.205 Goal=   None    Shift=    0.000
 RMSDP=2.21D-04 MaxDP=5.36D-03 DE=-1.25D-03 OVMax= 9.54D-03

 Cycle   5  Pass 1  IDiag  1:
 RMSU=  1.03D-04    CP:  9.93D-01  9.28D-01  7.53D-01  4.09D-01
 E= -674.751045924791     Delta-E=       -0.002218811553 Rises=F Damp=F
 DIIS: error= 7.88D-04 at cycle   5 NSaved=   5.
 NSaved= 5 IEnMin= 5 EnMin= -674.751045924791     IErMin= 5 ErrMin= 7.88D-04
 ErrMax= 7.88D-04  0.00D+00 EMaxC= 1.00D-01 BMatC= 6.44D-05 BMatP= 2.67D-03
 IDIUse=3 WtCom= 9.92D-01 WtEn= 7.88D-03
 Coeff-Com:  0.285D-02 0.245D-01 0.146D+00 0.216D+00 0.610D+00
 Coeff-En:   0.000D+00 0.000D+00 0.000D+00 0.000D+00 0.100D+01
 Coeff:      0.283D-02 0.243D-01 0.145D+00 0.215D+00 0.613D+00
 Gap=     0.203 Goal=   None    Shift=    0.000
 RMSDP=5.18D-05 MaxDP=1.22D-03 DE=-2.22D-03 OVMax= 1.57D-03

 Cycle   6  Pass 1  IDiag  1:
 RMSU=  2.32D-05    CP:  9.93D-01  9.39D-01  7.70D-01  4.51D-01  6.40D-01
 E= -674.751107171589     Delta-E=       -0.000061246799 Rises=F Damp=F
 DIIS: error= 2.72D-04 at cycle   6 NSaved=   6.
 NSaved= 6 IEnMin= 6 EnMin= -674.751107171589     IErMin= 6 ErrMin= 2.72D-04
 ErrMax= 2.72D-04  0.00D+00 EMaxC= 1.00D-01 BMatC= 4.73D-06 BMatP= 6.44D-05
 IDIUse=3 WtCom= 9.97D-01 WtEn= 2.72D-03
 Coeff-Com:  0.574D-03 0.699D-02 0.560D-01 0.925D-01 0.322D+00 0.522D+00
 Coeff-En:   0.000D+00 0.000D+00 0.000D+00 0.000D+00 0.000D+00 0.100D+01
 Coeff:      0.572D-03 0.697D-02 0.559D-01 0.922D-01 0.321D+00 0.523D+00
 Gap=     0.204 Goal=   None    Shift=    0.000
 RMSDP=2.06D-05 MaxDP=8.70D-04 DE=-6.12D-05 OVMax= 8.20D-04

 Cycle   7  Pass 1  IDiag  1:
 RMSU=  6.07D-06    CP:  9.93D-01  9.33D-01  7.67D-01  4.70D-01  6.72D-01
                    CP:  4.18D-01
 E= -674.751111550938     Delta-E=       -0.000004379348 Rises=F Damp=F
 DIIS: error= 4.36D-05 at cycle   7 NSaved=   7.
 NSaved= 7 IEnMin= 7 EnMin= -674.751111550938     IErMin= 7 ErrMin= 4.36D-05
 ErrMax= 4.36D-05  0.00D+00 EMaxC= 1.00D-01 BMatC= 1.17D-07 BMatP= 4.73D-06
 IDIUse=1 WtCom= 1.00D+00 WtEn= 0.00D+00
 Coeff-Com:  0.132D-04 0.604D-03 0.634D-02 0.112D-01 0.491D-01 0.186D+00
 Coeff-Com:  0.746D+00
 Coeff:      0.132D-04 0.604D-03 0.634D-02 0.112D-01 0.491D-01 0.186D+00
 Coeff:      0.746D+00
 Gap=     0.204 Goal=   None    Shift=    0.000
 RMSDP=3.25D-06 MaxDP=1.34D-04 DE=-4.38D-06 OVMax= 1.29D-04

 Cycle   8  Pass 1  IDiag  1:
 RMSU=  4.68D-07    CP:  9.93D-01  9.34D-01  7.67D-01  4.67D-01  6.74D-01
                    CP:  5.08D-01  8.28D-01
 E= -674.751111674203     Delta-E=       -0.000000123265 Rises=F Damp=F
 DIIS: error= 1.66D-06 at cycle   8 NSaved=   8.
 NSaved= 8 IEnMin= 8 EnMin= -674.751111674203     IErMin= 8 ErrMin= 1.66D-06
 ErrMax= 1.66D-06  0.00D+00 EMaxC= 1.00D-01 BMatC= 4.99D-10 BMatP= 1.17D-07
 IDIUse=1 WtCom= 1.00D+00 WtEn= 0.00D+00
 Coeff-Com:  0.403D-05 0.514D-04 0.830D-03 0.158D-02 0.702D-02 0.315D-01
 Coeff-Com:  0.159D+00 0.800D+00
 Coeff:      0.403D-05 0.514D-04 0.830D-03 0.158D-02 0.702D-02 0.315D-01
 Coeff:      0.159D+00 0.800D+00
 Gap=     0.204 Goal=   None    Shift=    0.000
 RMSDP=1.97D-07 MaxDP=4.42D-06 DE=-1.23D-07 OVMax= 6.82D-06

 Cycle   9  Pass 1  IDiag  1:
 RMSU=  1.31D-07    CP:  9.93D-01  9.34D-01  7.67D-01  4.67D-01  6.74D-01
                    CP:  5.07D-01  8.39D-01  8.01D-01
 E= -674.751111676522     Delta-E=       -0.000000002319 Rises=F Damp=F
 DIIS: error= 5.65D-07 at cycle   9 NSaved=   9.
 NSaved= 9 IEnMin= 9 EnMin= -674.751111676522     IErMin= 9 ErrMin= 5.65D-07
 ErrMax= 5.65D-07  0.00D+00 EMaxC= 1.00D-01 BMatC= 5.20D-11 BMatP= 4.99D-10
 IDIUse=1 WtCom= 1.00D+00 WtEn= 0.00D+00
 Coeff-Com:  0.205D-05-0.140D-04-0.439D-04-0.372D-04-0.282D-03-0.366D-04
 Coeff-Com:  0.138D-01 0.277D+00 0.710D+00
 Coeff:      0.205D-05-0.140D-04-0.439D-04-0.372D-04-0.282D-03-0.366D-04
 Coeff:      0.138D-01 0.277D+00 0.710D+00
 Gap=     0.204 Goal=   None    Shift=    0.000
 RMSDP=5.79D-08 MaxDP=9.11D-07 DE=-2.32D-09 OVMax= 1.84D-06

 Cycle  10  Pass 1  IDiag  1:
 RMSU=  1.83D-08    CP:  9.93D-01  9.34D-01  7.67D-01  4.67D-01  6.74D-01
                    CP:  5.06D-01  8.40D-01  8.67D-01  7.59D-01
 E= -674.751111674695     Delta-E=        0.000000001828 Rises=F Damp=F
 DIIS: error= 9.63D-08 at cycle  10 NSaved=  10.
 NSaved=10 IEnMin= 9 EnMin= -674.751111676522     IErMin=10 ErrMin= 9.63D-08
 ErrMax= 9.63D-08  0.00D+00 EMaxC= 1.00D-01 BMatC= 1.25D-12 BMatP= 5.20D-11
 IDIUse=1 WtCom= 1.00D+00 WtEn= 0.00D+00
 Coeff-Com:  0.770D-06-0.642D-05-0.234D-04-0.273D-04-0.164D-03-0.229D-03
 Coeff-Com:  0.488D-02 0.113D+00 0.312D+00 0.571D+00
 Coeff:      0.770D-06-0.642D-05-0.234D-04-0.273D-04-0.164D-03-0.229D-03
 Coeff:      0.488D-02 0.113D+00 0.312D+00 0.571D+00
 Gap=     0.204 Goal=   None    Shift=    0.000
 RMSDP=8.63D-09 MaxDP=1.55D-07 DE= 1.83D-09 OVMax= 2.66D-07

 Cycle  11  Pass 1  IDiag  1:
 RMSU=  5.01D-09    CP:  9.93D-01  9.34D-01  7.67D-01  4.67D-01  6.74D-01
                    CP:  5.06D-01  8.41D-01  8.68D-01  7.81D-01  7.57D-01
 E= -674.751111674698     Delta-E=       -0.000000000003 Rises=F Damp=F
 DIIS: error= 3.22D-08 at cycle  11 NSaved=  11.
 NSaved=11 IEnMin= 9 EnMin= -674.751111676522     IErMin=11 ErrMin= 3.22D-08
 ErrMax= 3.22D-08  0.00D+00 EMaxC= 1.00D-01 BMatC= 2.06D-13 BMatP= 1.25D-12
 IDIUse=1 WtCom= 1.00D+00 WtEn= 0.00D+00
 Coeff-Com:  0.465D-07-0.134D-05-0.606D-05-0.104D-04-0.434D-04-0.728D-04
 Coeff-Com:  0.766D-03 0.190D-01 0.580D-01 0.302D+00 0.621D+00
 Coeff:      0.465D-07-0.134D-05-0.606D-05-0.104D-04-0.434D-04-0.728D-04
 Coeff:      0.766D-03 0.190D-01 0.580D-01 0.302D+00 0.621D+00
 Gap=     0.204 Goal=   None    Shift=    0.000
 RMSDP=1.88D-09 MaxDP=5.81D-08 DE=-2.96D-12 OVMax= 8.66D-08

 Error on total polarization charges =  0.01484
 SCF Done:  E(RB-P86) =  -674.751111675     A.U. after   11 cycles
            NFock= 11  Conv=0.19D-08     -V/T= 2.0039
 KE= 6.721051171857D+02 PE=-2.220921561694D+03 EE= 5.589245950043D+02
 Leave Link  502 at Sat Aug 21 09:32:24 2021, MaxMem=   104857600 cpu:             222.4 elap:               9.4
 (Enter /sw/arch/RedHatEnterpriseServer7/EB_production/2020/software/Gaussian/g16.c01/l601.exe)
 Copying SCF densities to generalized density rwf, IOpCl= 0 IROHF=0.

 **********************************************************************

            Population analysis using the SCF Density.

 **********************************************************************

 Orbital symmetries:
       Occupied  (A) (A) (A) (A) (A) (A) (A) (A) (A) (A) (A) (A)
                 (A) (A) (A) (A) (A) (A) (A) (A) (A) (A) (A) (A)
                 (A) (A) (A) (A) (A) (A)
       Virtual   (A) (A) (A) (A) (A) (A) (A) (A) (A) (A) (A) (A)
                 (A) (A) (A) (A) (A) (A) (A) (A) (A) (A) (A) (A)
                 (A) (A) (A) (A) (A) (A) (A) (A) (A) (A) (A) (A)
                 (A) (A) (A) (A) (A) (A) (A) (A) (A) (A) (A) (A)
                 (A) (A) (A) (A) (A) (A) (A) (A) (A) (A) (A) (A)
                 (A) (A) (A) (A) (A) (A) (A) (A) (A) (A) (A) (A)
                 (A) (A) (A) (A) (A) (A) (A) (A) (A) (A) (A) (A)
                 (A) (A) (A) (A) (A) (A) (A) (A) (A) (A) (A) (A)
                 (A) (A) (A) (A) (A) (A) (A) (A) (A) (A) (A) (A)
                 (A) (A) (A) (A) (A) (A) (A) (A) (A) (A) (A) (A)
                 (A) (A) (A) (A) (A) (A) (A) (A) (A) (A) (A) (A)
                 (A) (A) (A) (A) (A) (A) (A) (A) (A) (A) (A) (A)
                 (A) (A) (A) (A) (A) (A) (A) (A) (A) (A) (A) (A)
                 (A) (A) (A)
 The electronic state is 1-A.
 Alpha  occ. eigenvalues -- -100.63761 -14.15144  -9.95934  -9.95015  -9.95014
 Alpha  occ. eigenvalues --   -9.95014  -9.07629  -6.89445  -6.89445  -6.89441
 Alpha  occ. eigenvalues --   -0.96469  -0.69180  -0.69180  -0.69003  -0.62687
 Alpha  occ. eigenvalues --   -0.57785  -0.48866  -0.48865  -0.48730  -0.40042
 Alpha  occ. eigenvalues --   -0.40041  -0.37137  -0.37136  -0.36236  -0.35748
 Alpha  occ. eigenvalues --   -0.35549  -0.35548  -0.20642  -0.20638  -0.20420
 Alpha virt. eigenvalues --   -0.00015   0.03041   0.04359   0.04361   0.05194
 Alpha virt. eigenvalues --    0.06333   0.06334   0.08842   0.09689   0.09691
 Alpha virt. eigenvalues --    0.10277   0.10565   0.10567   0.13470   0.14059
 Alpha virt. eigenvalues --    0.14064   0.17691   0.17695   0.23730   0.23731
 Alpha virt. eigenvalues --    0.24156   0.25817   0.25970   0.25971   0.28973
 Alpha virt. eigenvalues --    0.31086   0.33832   0.34660   0.34662   0.36292
 Alpha virt. eigenvalues --    0.38784   0.38787   0.40530   0.40532   0.40640
 Alpha virt. eigenvalues --    0.41599   0.41600   0.41739   0.41740   0.42351
 Alpha virt. eigenvalues --    0.43454   0.43716   0.43716   0.45645   0.45647
 Alpha virt. eigenvalues --    0.48483   0.53711   0.64949   0.65291   0.65292
 Alpha virt. eigenvalues --    0.66744   0.78909   0.81081   0.81082   0.84107
 Alpha virt. eigenvalues --    0.86874   0.86876   0.98189   0.98189   1.13690
 Alpha virt. eigenvalues --    1.13690   1.15520   1.18143   1.18459   1.18460
 Alpha virt. eigenvalues --    1.18774   1.18775   1.26268   1.26283   1.26284
 Alpha virt. eigenvalues --    1.29460   1.31718   1.32490   1.32492   1.37466
 Alpha virt. eigenvalues --    1.43123   1.44181   1.44182   1.44531   1.46402
 Alpha virt. eigenvalues --    1.46402   1.49911   1.56813   1.56813   1.64178
 Alpha virt. eigenvalues --    1.64178   1.66330   1.66332   1.66772   1.68440
 Alpha virt. eigenvalues --    1.68440   1.69232   1.69234   1.71500   1.71501
 Alpha virt. eigenvalues --    1.72018   1.73190   1.73192   1.84784   1.88405
 Alpha virt. eigenvalues --    1.89025   1.89026   1.97934   1.99772   1.99773
 Alpha virt. eigenvalues --    2.12040   2.12927   2.12927   2.14980   2.14981
 Alpha virt. eigenvalues --    2.27099   2.27100   2.27784   2.28813   2.28814
 Alpha virt. eigenvalues --    2.30301   2.30971   2.30972   2.31829   2.36487
 Alpha virt. eigenvalues --    2.37592   2.37593   2.38147   2.42517   2.49636
 Alpha virt. eigenvalues --    2.49638   2.58368   2.60122   2.60123   2.61340
 Alpha virt. eigenvalues --    2.61340   2.62290   2.70386   2.70386   2.85103
 Alpha virt. eigenvalues --    2.86712   2.86713   2.90244   3.03482   3.03483
 Alpha virt. eigenvalues --    3.04169   3.12035   3.15981   3.15982   3.18050
 Alpha virt. eigenvalues --    3.25347   3.25348   3.29212   3.29213   3.29368
 Alpha virt. eigenvalues --    3.57864   3.57865   3.58126  21.75536  21.78455
 Alpha virt. eigenvalues --   21.79364  21.79365  24.09530  31.59598
          Condensed to atoms (all electrons):
               1          2          3          4          5          6
     1  C    5.295281   0.250670  -0.115260  -0.115238  -0.106495  -0.044679
     2  N    0.250670   6.357208   0.250655   0.250670   0.271898   0.005075
     3  C   -0.115260   0.250655   5.295428  -0.115341  -0.106413  -0.044855
     4  C   -0.115238   0.250670  -0.115341   5.295393  -0.106438  -0.044618
     5  C   -0.106495   0.271898  -0.106413  -0.106438   5.200994   0.000041
     6  Cl  -0.044679   0.005075  -0.044855  -0.044618   0.000041  17.821671
     7  H    0.378547  -0.013519  -0.007135   0.011172  -0.008886   0.000916
     8  H    0.336134  -0.021311   0.001624   0.001593   0.010242   0.055418
     9  H    0.378622  -0.013541   0.011170  -0.007155  -0.008915   0.000905
    10  H    0.011177  -0.013526   0.378562  -0.007128  -0.008929   0.000913
    11  H   -0.007126  -0.013512   0.378554   0.011170  -0.008901   0.000916
    12  H    0.001618  -0.021302   0.335709   0.001657   0.010245   0.055650
    13  H   -0.007135  -0.013537   0.011165   0.378614  -0.008912   0.000907
    14  H    0.001589  -0.021320   0.001645   0.336234   0.010245   0.055342
    15  H    0.011175  -0.013529  -0.007127   0.378568  -0.008925   0.000911
    16  H   -0.008534  -0.016028   0.011936  -0.008549   0.384969   0.000019
    17  H   -0.008528  -0.015983  -0.008543   0.011930   0.384910   0.000019
    18  H    0.011932  -0.015976  -0.008539  -0.008528   0.384881   0.000019
               7          8          9         10         11         12
     1  C    0.378547   0.336134   0.378622   0.011177  -0.007126   0.001618
     2  N   -0.013519  -0.021311  -0.013541  -0.013526  -0.013512  -0.021302
     3  C   -0.007135   0.001624   0.011170   0.378562   0.378554   0.335709
     4  C    0.011172   0.001593  -0.007155  -0.007128   0.011170   0.001657
     5  C   -0.008886   0.010242  -0.008915  -0.008929  -0.008901   0.010245
     6  Cl   0.000916   0.055418   0.000905   0.000913   0.000916   0.055650
     7  H    0.492982  -0.016386  -0.022688   0.000030   0.002975  -0.000980
     8  H   -0.016386   0.494884  -0.016481   0.000323  -0.000978  -0.003278
     9  H   -0.022688  -0.016481   0.493106  -0.000382   0.000030   0.000325
    10  H    0.000030   0.000323  -0.000382   0.493095  -0.022656  -0.016466
    11  H    0.002975  -0.000978   0.000030  -0.022656   0.492945  -0.016413
    12  H   -0.000980  -0.003278   0.000325  -0.016466  -0.016413   0.495617
    13  H    0.000030  -0.000977   0.002975   0.000030  -0.000382   0.000325
    14  H    0.000323  -0.003236  -0.000975  -0.000979   0.000322  -0.003276
    15  H   -0.000382   0.000323   0.000030   0.002979   0.000030  -0.000983
    16  H   -0.000211   0.000074   0.003089   0.000081   0.000081  -0.000405
    17  H    0.003081   0.000072  -0.000210  -0.000207   0.003082   0.000073
    18  H    0.000081  -0.000404   0.000082   0.003088  -0.000208   0.000074
              13         14         15         16         17         18
     1  C   -0.007135   0.001589   0.011175  -0.008534  -0.008528   0.011932
     2  N   -0.013537  -0.021320  -0.013529  -0.016028  -0.015983  -0.015976
     3  C    0.011165   0.001645  -0.007127   0.011936  -0.008543  -0.008539
     4  C    0.378614   0.336234   0.378568  -0.008549   0.011930  -0.008528
     5  C   -0.008912   0.010245  -0.008925   0.384969   0.384910   0.384881
     6  Cl   0.000907   0.055342   0.000911   0.000019   0.000019   0.000019
     7  H    0.000030   0.000323  -0.000382  -0.000211   0.003081   0.000081
     8  H   -0.000977  -0.003236   0.000323   0.000074   0.000072  -0.000404
     9  H    0.002975  -0.000975   0.000030   0.003089  -0.000210   0.000082
    10  H    0.000030  -0.000979   0.002979   0.000081  -0.000207   0.003088
    11  H   -0.000382   0.000322   0.000030   0.000081   0.003082  -0.000208
    12  H    0.000325  -0.003276  -0.000983  -0.000405   0.000073   0.000074
    13  H    0.492995  -0.016444  -0.022673   0.003083   0.000081  -0.000209
    14  H   -0.016444   0.494680  -0.016444   0.000073  -0.000404   0.000073
    15  H   -0.022673  -0.016444   0.493053  -0.000208   0.000081   0.003086
    16  H    0.003083   0.000073  -0.000208   0.481161  -0.019844  -0.019817
    17  H    0.000081  -0.000404   0.000081  -0.019844   0.481030  -0.019787
    18  H   -0.000209   0.000073   0.003086  -0.019817  -0.019787   0.481027
 Mulliken charges:
               1
     1  C   -0.263749
     2  N   -0.193092
     3  C   -0.263235
     4  C   -0.264006
     5  C   -0.285611
     6  Cl  -0.864568
     7  H    0.180053
     8  H    0.162363
     9  H    0.180014
    10  H    0.179997
    11  H    0.180071
    12  H    0.161810
    13  H    0.180063
    14  H    0.162552
    15  H    0.180036
    16  H    0.189030
    17  H    0.189146
    18  H    0.189126
 Sum of Mulliken charges =  -0.00000
 Mulliken charges with hydrogens summed into heavy atoms:
               1
     1  C    0.258681
     2  N   -0.193092
     3  C    0.258643
     4  C    0.258645
     5  C    0.281690
     6  Cl  -0.864568
 Electronic spatial extent (au):  <R**2>=           1109.2998
 Charge=             -0.0000 electrons
 Dipole moment (field-independent basis, Debye):
    X=             -6.5806    Y=            -12.3939    Z=              8.3428  Tot=             16.3253
 Quadrupole moment (field-independent basis, Debye-Ang):
   XX=            -47.5050   YY=            -58.5868   ZZ=            -50.1527
   XY=             -8.1846   XZ=              5.5066   YZ=             10.3834
 Traceless Quadrupole moment (field-independent basis, Debye-Ang):
   XX=              4.5765   YY=             -6.5053   ZZ=              1.9288
   XY=             -8.1846   XZ=              5.5066   YZ=             10.3834
 Octapole moment (field-independent basis, Debye-Ang**2):
  XXX=            -21.7961  YYY=            -69.3979  ZZZ=             32.1806  XYY=            -26.2839
  XXY=            -21.0595  XXZ=             13.8194  XZZ=            -14.6704  YZZ=            -27.7306
  YYZ=             33.5499  XYZ=             14.6328
 Hexadecapole moment (field-independent basis, Debye-Ang**3):
 XXXX=           -354.4624 YYYY=           -773.7688 ZZZZ=           -450.3862 XXXY=           -146.0569
 XXXZ=             95.1623 YYYX=           -163.9755 YYYZ=            211.6894 ZZZX=             99.9814
 ZZZY=            189.4846 XXYY=           -192.3206 XXZZ=           -134.1583 YYZZ=           -215.9005
 XXYZ=             68.3698 YYXZ=             54.0691 ZZXY=            -60.2522
 N-N= 3.151407378289D+02 E-N=-2.220921558663D+03  KE= 6.721051171857D+02
 No NMR shielding tensors so no spin-rotation constants.
 Leave Link  601 at Sat Aug 21 09:32:24 2021, MaxMem=   104857600 cpu:               4.5 elap:               0.3
 (Enter /sw/arch/RedHatEnterpriseServer7/EB_production/2020/software/Gaussian/g16.c01/l701.exe)
 ... and contract with generalized density number  0.
 Compute integral first derivatives.
 R6Disp: Adding Grimme-D3 dispersion energy 1st derivatives to the gradient.
 D1PCM: PCM CHGder 1st derivatives, ID1Alg=3 FixD1E=F DoIter=F DoCFld=F I1PDM=0.
 GePol: Maximum number of non-zero 1st derivatives   =     254
 Leave Link  701 at Sat Aug 21 09:32:25 2021, MaxMem=   104857600 cpu:              17.2 elap:               0.8
 (Enter /sw/arch/RedHatEnterpriseServer7/EB_production/2020/software/Gaussian/g16.c01/l702.exe)
 L702 exits ... SP integral derivatives will be done elsewhere.
 Leave Link  702 at Sat Aug 21 09:32:25 2021, MaxMem=   104857600 cpu:               0.3 elap:               0.0
 (Enter /sw/arch/RedHatEnterpriseServer7/EB_production/2020/software/Gaussian/g16.c01/l703.exe)
 Integral derivatives from FoFJK, PRISM(SPDF).
 Compute integral first derivatives, UseDBF=F ICtDFT=           0.
 Calling FoFJK, ICntrl=      2527 FMM=F ISym2X=0 I1Cent= 0 IOpClX= 0 NMat=1 NMatS=1 NMatT=0.
 FoFJK:  IHMeth= 1 ICntrl=    2527 DoSepK=F KAlg= 0 I1Cent=           0 FoldK=F
 IRaf=         0 NMat=       1 IRICut=       1 DoRegI=T DoRafI=F ISym2E= 0 IDoP0=0 IntGTp=1.
 FoFCou: FMM=F IPFlag=           0 FMFlag=      100000 FMFlg1=         800
         NFxFlg=           0 DoJE=F BraDBF=F KetDBF=F FulRan=T
         wScrn=  0.000000 ICntrl=      2527 IOpCl=  0 I1Cent=           0 NGrid=           0
         NMat0=    1 NMatS0=      1 NMatT0=    0 NMatD0=    1 NMtDS0=    0 NMtDT0=    0
 Symmetry not used in FoFCou.
 Leave Link  703 at Sat Aug 21 09:32:27 2021, MaxMem=   104857600 cpu:              30.1 elap:               1.3
 (Enter /sw/arch/RedHatEnterpriseServer7/EB_production/2020/software/Gaussian/g16.c01/l716.exe)
 Dipole        =-2.58902031D+00-4.87615413D+00 3.28229804D+00
 ***** Axes restored to original set *****
 -------------------------------------------------------------------
 Center     Atomic                   Forces (Hartrees/Bohr)
 Number     Number              X              Y              Z
 -------------------------------------------------------------------
      1        6          -0.035889411   -0.000623444    0.010577115
      2        7           0.004045867   -0.003170464    0.006584916
      3        6           0.008435972   -0.023541767   -0.027802471
      4        6           0.014616870    0.034267233   -0.003604385
      5        6           0.018305825   -0.014442047    0.029707560
      6       17          -0.001468113    0.001188950   -0.002344717
      7        1           0.008865987    0.006916424   -0.001619732
      8        1           0.009123226    0.000137336   -0.002905343
      9        1           0.007483341   -0.005216714   -0.006706397
     10        1          -0.008370773    0.002993837    0.006964473
     11        1           0.002250139    0.010362525    0.003966056
     12        1          -0.002255231    0.006159910    0.006983741
     13        1           0.000056857   -0.010313284   -0.004613001
     14        1          -0.003881780   -0.008683991    0.000720844
     15        1          -0.009287156   -0.005503668    0.003450904
     16        1          -0.001293537   -0.002592494   -0.010951047
     17        1          -0.000035353    0.009762055   -0.005733715
     18        1          -0.010702729    0.002299604   -0.002674800
 -------------------------------------------------------------------
 Cartesian Forces:  Max     0.035889411 RMS     0.011492082
 Leave Link  716 at Sat Aug 21 09:32:27 2021, MaxMem=   104857600 cpu:               0.6 elap:               0.1
 (Enter /sw/arch/RedHatEnterpriseServer7/EB_production/2020/software/Gaussian/g16.c01/l103.exe)

 GradGradGradGradGradGradGradGradGradGradGradGradGradGradGradGradGradGrad
 Berny optimization.
 FormGI is forming the generalized inverse of G from B-inverse, IUseBI=4.
 Internal  Forces:  Max     0.013083123 RMS     0.004510151
 Search for a local minimum.
 Step number   1 out of a maximum of  108
 All quantities printed in internal units (Hartrees-Bohrs-Radians)
 RMS Force = .45102D-02 SwitMx=.10000D-02 MixMth= 1
 Mixed Optimization -- RFO/linear search
 Second derivative matrix not updated -- first step.
 ITU=  0
     Eigenvalues ---    0.00359   0.00414   0.00414   0.00590   0.01831
     Eigenvalues ---    0.01831   0.02537   0.03522   0.03931   0.03931
     Eigenvalues ---    0.05133   0.05209   0.05210   0.05636   0.05636
     Eigenvalues ---    0.05918   0.05918   0.06807   0.09369   0.09369
     Eigenvalues ---    0.11451   0.11451   0.11475   0.11579   0.12277
     Eigenvalues ---    0.12277   0.16000   0.16000   0.16000   0.18018
     Eigenvalues ---    0.18018   0.20378   0.29232   0.29232   0.32219
     Eigenvalues ---    0.32219   0.32219   0.32262   0.32262   0.32262
     Eigenvalues ---    0.32262   0.32262   0.32262   0.32828   0.33140
     Eigenvalues ---    0.33140   0.33364   0.34194
 RFO step:  Lambda=-9.22839149D-03 EMin= 3.59332513D-03
 Linear search not attempted -- first point.
 Iteration  1 RMS(Cart)=  0.01500983 RMS(Int)=  0.00056200
 Iteration  2 RMS(Cart)=  0.00039658 RMS(Int)=  0.00040197
 Iteration  3 RMS(Cart)=  0.00000023 RMS(Int)=  0.00040197
 ITry= 1 IFail=0 DXMaxC= 5.19D-02 DCOld= 1.00D+10 DXMaxT= 3.00D-01 DXLimC= 3.00D+00 Rises=F
 Variable       Old X    -DE/DX   Delta X   Delta X   Delta X     New X
                                 (Linear)    (Quad)   (Total)
    R1        2.79694   0.01116   0.00000   0.03346   0.03346   2.83040
    R2        2.10367  -0.00970   0.00000  -0.02924  -0.02924   2.07443
    R3        2.08449  -0.00160   0.00000  -0.00464  -0.00464   2.07985
    R4        2.10367  -0.00970   0.00000  -0.02922  -0.02922   2.07445
    R5        2.79694   0.01130   0.00000   0.03388   0.03388   2.83082
    R6        2.79694   0.01130   0.00000   0.03387   0.03387   2.83081
    R7        2.80304   0.01308   0.00000   0.03726   0.03726   2.84029
    R8        2.10367  -0.00971   0.00000  -0.02927  -0.02927   2.07440
    R9        2.10367  -0.00973   0.00000  -0.02933  -0.02933   2.07434
   R10        2.08449  -0.00163   0.00000  -0.00449  -0.00450   2.07999
   R11        2.10367  -0.00969   0.00000  -0.02920  -0.02920   2.07447
   R12        2.08448  -0.00157   0.00000  -0.00444  -0.00444   2.08004
   R13        2.10367  -0.00971   0.00000  -0.02927  -0.02927   2.07440
   R14        2.10445  -0.01022   0.00000  -0.03082  -0.03082   2.07363
   R15        2.10445  -0.01021   0.00000  -0.03080  -0.03080   2.07365
   R16        2.10445  -0.01019   0.00000  -0.03075  -0.03075   2.07370
   R17        4.93275   0.00039   0.00000  -0.00236  -0.00235   4.93039
   R18        4.93275   0.00032   0.00000  -0.00202  -0.00203   4.93073
   R19        4.93275   0.00034   0.00000  -0.00285  -0.00284   4.92990
    A1        1.93743  -0.00410   0.00000  -0.03877  -0.03899   1.89843
    A2        1.95316  -0.00437   0.00000  -0.01324  -0.01315   1.94000
    A3        1.93743  -0.00399   0.00000  -0.03775  -0.03798   1.89945
    A4        1.87460   0.00523   0.00000   0.03665   0.03622   1.91082
    A5        1.88343   0.00287   0.00000   0.02238   0.02063   1.90406
    A6        1.87461   0.00516   0.00000   0.03652   0.03608   1.91069
    A7        1.93349  -0.00080   0.00000  -0.00871  -0.00883   1.92466
    A8        1.93349  -0.00069   0.00000  -0.00760  -0.00774   1.92575
    A9        1.88718   0.00070   0.00000   0.00755   0.00761   1.89479
   A10        1.93349  -0.00080   0.00000  -0.00834  -0.00847   1.92502
   A11        1.88718   0.00090   0.00000   0.00957   0.00961   1.89679
   A12        1.88718   0.00081   0.00000   0.00885   0.00890   1.89609
   A13        1.93743  -0.00396   0.00000  -0.03741  -0.03763   1.89980
   A14        1.93743  -0.00396   0.00000  -0.03755  -0.03776   1.89967
   A15        1.95316  -0.00438   0.00000  -0.01364  -0.01354   1.93962
   A16        1.88343   0.00283   0.00000   0.02235   0.02067   1.90409
   A17        1.87460   0.00514   0.00000   0.03605   0.03562   1.91023
   A18        1.87460   0.00512   0.00000   0.03591   0.03547   1.91007
   A19        1.93743  -0.00399   0.00000  -0.03779  -0.03801   1.89942
   A20        1.95316  -0.00437   0.00000  -0.01326  -0.01317   1.93999
   A21        1.93743  -0.00401   0.00000  -0.03800  -0.03822   1.89920
   A22        1.87460   0.00513   0.00000   0.03622   0.03580   1.91040
   A23        1.88343   0.00285   0.00000   0.02225   0.02053   1.90396
   A24        1.87461   0.00519   0.00000   0.03632   0.03589   1.91050
   A25        1.94091  -0.00488   0.00000  -0.02902  -0.02944   1.91148
   A26        1.94092  -0.00486   0.00000  -0.02873  -0.02914   1.91177
   A27        1.94091  -0.00470   0.00000  -0.02756  -0.02795   1.91296
   A28        1.87940   0.00512   0.00000   0.02987   0.02943   1.90884
   A29        1.87940   0.00509   0.00000   0.03006   0.02966   1.90906
   A30        1.87940   0.00513   0.00000   0.03066   0.03028   1.90968
   A31        1.02601  -0.00046   0.00000  -0.00851  -0.00853   1.01748
   A32        1.02602  -0.00041   0.00000  -0.00770  -0.00773   1.01829
   A33        1.02603  -0.00043   0.00000  -0.00827  -0.00829   1.01774
   A34        2.47309   0.00544   0.00000   0.02695   0.02691   2.50000
   A35        2.47309   0.00546   0.00000   0.02712   0.02709   2.50018
   A36        2.47309   0.00542   0.00000   0.02699   0.02696   2.50005
    D1        1.01769   0.00192   0.00000   0.02238   0.02215   1.03985
    D2       -3.11246  -0.00015   0.00000   0.00022   0.00003  -3.11243
    D3       -1.04738   0.00086   0.00000   0.01119   0.01098  -1.03640
    D4       -1.07648   0.00103   0.00000   0.01130   0.01126  -1.06522
    D5        1.07654  -0.00104   0.00000  -0.01086  -0.01086   1.06568
    D6       -3.14156  -0.00003   0.00000   0.00011   0.00009  -3.14147
    D7        3.11251   0.00016   0.00000  -0.00031  -0.00013   3.11239
    D8       -1.01765  -0.00191   0.00000  -0.02247  -0.02225  -1.03989
    D9        1.04744  -0.00090   0.00000  -0.01150  -0.01130   1.03614
   D10       -0.00007  -0.00003   0.00000  -0.00161  -0.00161  -0.00168
   D11       -2.13064   0.00428   0.00000   0.03028   0.03121  -2.09943
   D12        2.13051  -0.00426   0.00000  -0.03232  -0.03325   2.09725
   D13       -3.11250  -0.00013   0.00000   0.00061   0.00044  -3.11206
   D14       -1.01768  -0.00183   0.00000  -0.02109  -0.02088  -1.03856
   D15        1.07650  -0.00099   0.00000  -0.01037  -0.01036   1.06614
   D16        1.01766   0.00188   0.00000   0.02234   0.02213   1.03979
   D17        3.11248   0.00018   0.00000   0.00064   0.00081   3.11328
   D18       -1.07652   0.00101   0.00000   0.01136   0.01133  -1.06520
   D19       -1.04742   0.00081   0.00000   0.01058   0.01039  -1.03703
   D20        1.04740  -0.00089   0.00000  -0.01112  -0.01094   1.03646
   D21        3.14158  -0.00005   0.00000  -0.00040  -0.00042   3.14117
   D22        1.01769   0.00189   0.00000   0.02271   0.02249   1.04018
   D23       -1.07650   0.00105   0.00000   0.01151   0.01149  -1.06500
   D24        3.11250   0.00015   0.00000   0.00033   0.00052   3.11302
   D25       -3.11247  -0.00018   0.00000   0.00034   0.00015  -3.11231
   D26        1.07653  -0.00102   0.00000  -0.01086  -0.01084   1.06569
   D27       -1.01766  -0.00192   0.00000  -0.02204  -0.02182  -1.03948
   D28       -1.04739   0.00094   0.00000   0.01253   0.01233  -1.03506
   D29       -3.14158   0.00010   0.00000   0.00134   0.00133  -3.14025
   D30        1.04742  -0.00079   0.00000  -0.00984  -0.00965   1.03778
   D31       -1.04720  -0.00002   0.00000  -0.00087  -0.00087  -1.04807
   D32        1.04720  -0.00008   0.00000  -0.00188  -0.00186   1.04534
   D33       -3.14159  -0.00002   0.00000  -0.00090  -0.00090   3.14070
   D34       -3.14159   0.00003   0.00000  -0.00017  -0.00017   3.14142
   D35       -1.04720  -0.00004   0.00000  -0.00118  -0.00116  -1.04835
   D36        1.04720   0.00003   0.00000  -0.00019  -0.00019   1.04701
   D37        1.04720   0.00002   0.00000  -0.00065  -0.00067   1.04653
   D38       -3.14159  -0.00005   0.00000  -0.00166  -0.00166   3.13994
   D39       -1.04719   0.00001   0.00000  -0.00068  -0.00069  -1.04788
   D40        0.00002  -0.00001   0.00000  -0.00070  -0.00070  -0.00068
   D41       -2.13055   0.00419   0.00000   0.03015   0.03105  -2.09950
   D42        2.13060  -0.00423   0.00000  -0.03181  -0.03272   2.09788
   D43       -0.00003  -0.00000   0.00000   0.00003   0.00003  -0.00001
   D44       -2.13061   0.00424   0.00000   0.03100   0.03191  -2.09870
   D45        2.13054  -0.00423   0.00000  -0.03114  -0.03206   2.09848
   D46        0.61129  -0.00003   0.00000  -0.00005  -0.00002   0.61127
   D47       -0.61118   0.00014   0.00000   0.00335   0.00336  -0.60782
   D48       -0.61126   0.00007   0.00000   0.00156   0.00157  -0.60969
   D49        0.61120  -0.00005   0.00000  -0.00090  -0.00088   0.61032
   D50        0.61124  -0.00015   0.00000  -0.00240  -0.00239   0.60886
   D51       -0.61120   0.00007   0.00000   0.00141   0.00141  -0.60979
         Item               Value     Threshold  Converged?
 Maximum Force            0.013083     0.000450     NO 
 RMS     Force            0.004510     0.000300     NO 
 Maximum Displacement     0.051900     0.001800     NO 
 RMS     Displacement     0.015038     0.001200     NO 
 Predicted change in Energy=-4.863588D-03
 Lowest energy point so far.  Saving SCF results.
 GradGradGradGradGradGradGradGradGradGradGradGradGradGradGradGradGradGrad

 Leave Link  103 at Sat Aug 21 09:32:27 2021, MaxMem=   104857600 cpu:               1.0 elap:               0.1
 (Enter /sw/arch/RedHatEnterpriseServer7/EB_production/2020/software/Gaussian/g16.c01/l202.exe)
                          Input orientation:                          
 ---------------------------------------------------------------------
 Center     Atomic      Atomic             Coordinates (Angstroms)
 Number     Number       Type             X           Y           Z
 ---------------------------------------------------------------------
      1          6           0        0.013769    1.321188    0.572034
      2          7           0        1.479262    1.295200    0.263795
      3          6           0        1.743612    0.427825   -0.928595
      4          6           0        1.984360    2.683949    0.018337
      5          6           0        2.207024    0.721534    1.447153
      6         17           0       -0.332677    2.722300   -2.673948
      7          1           0       -0.322432    0.296405    0.776538
      8          1           0       -0.561870    1.735254   -0.269709
      9          1           0       -0.149505    1.937725    1.465500
     10          1           0        2.825072    0.401078   -1.114967
     11          1           0        1.391189   -0.589036   -0.712433
     12          1           0        1.227290    0.812421   -1.821344
     13          1           0        1.805913    3.289718    0.916270
     14          1           0        1.476014    3.145207   -0.842124
     15          1           0        3.063871    2.638942   -0.175651
     16          1           0        2.022742    1.347288    2.329524
     17          1           0        1.846621   -0.296570    1.641328
     18          1           0        3.284086    0.693739    1.238941
 ---------------------------------------------------------------------
                    Distance matrix (angstroms):
                    1          2          3          4          5
     1  C    0.000000
     2  N    1.497784   0.000000
     3  C    2.458117   1.498004   0.000000
     4  C    2.459050   1.497998   2.458605   0.000000
     5  C    2.436347   1.503019   2.438278   2.437656   0.000000
     6  Cl   3.552399   3.734980   3.552724   3.552257   5.237998
     7  H    1.097740   2.122875   2.682030   3.405367   2.651152
     8  H    1.100610   2.155109   2.731070   2.732449   3.412041
     9  H    1.097751   2.123633   3.405199   2.684122   2.651921
    10  H    3.405289   2.124062   1.097728   2.683779   2.655020
    11  H    2.682554   2.123940   1.097695   3.405629   2.654617
    12  H    2.731251   2.155080   1.100682   2.731336   3.413387
    13  H    2.684285   2.123799   3.405560   1.097762   2.652978
    14  H    2.732224   2.155363   2.731895   1.100712   3.413115
    15  H    3.405676   2.123614   2.683104   1.097725   2.654078
    16  H    2.669350   2.136661   3.396862   2.670154   1.097318
    17  H    2.668309   2.136886   2.672053   3.396552   1.097329
    18  H    3.396090   2.137768   2.672449   2.672096   1.097354
                    6          7          8          9         10
     6  Cl   0.000000
     7  H    4.217930   0.000000
     8  H    2.609052   1.795063   0.000000
     9  H    4.217125   1.788436   1.794991   0.000000
    10  H    4.217804   3.673626   3.737092   4.227079   0.000000
    11  H    4.217132   2.436706   3.068023   3.674459   1.788402
    12  H    2.609228   3.068697   2.541708   3.737006   1.794736
    13  H    4.217250   3.675499   3.070716   2.439917   3.675438
    14  H    2.608792   3.737666   2.543343   3.070090   3.069958
    15  H    4.217224   4.226250   3.737846   3.675713   2.438723
    16  H    5.698544   3.002659   3.686022   2.411185   3.661088
    17  H    5.699520   2.409205   3.685268   3.001251   3.006866
    18  H    5.701468   3.657685   4.260535   3.659013   2.416035
                   11         12         13         14         15
    11  H    0.000000
    12  H    1.794611   0.000000
    13  H    4.227221   3.737155   0.000000
    14  H    3.737457   2.542169   1.794899   0.000000
    15  H    3.675029   3.068796   1.788368   1.794931   0.000000
    16  H    3.660835   4.260109   2.411916   3.686567   3.004700
    17  H    2.415190   3.688296   3.659075   4.260365   3.660648
    18  H    3.006065   3.689151   3.004699   3.689126   2.415239
                   16         17         18
    16  H    0.000000
    17  H    1.790783   0.000000
    18  H    1.790946   1.791350   0.000000
 Stoichiometry    C4H12ClN
 Framework group  C1[X(C4H12ClN)]
 Deg. of freedom    48
 Full point group                 C1      NOp   1
 RotChk:  IX=1 Diff= 1.63D+00
 Largest Abelian subgroup         C1      NOp   1
 Largest concise Abelian subgroup C1      NOp   1
                         Standard orientation:                         
 ---------------------------------------------------------------------
 Center     Atomic      Atomic             Coordinates (Angstroms)
 Number     Number       Type             X           Y           Z
 ---------------------------------------------------------------------
      1          6           0       -0.567808    0.947424    1.056313
      2          7           0       -1.045876   -0.000315   -0.000379
      3          6           0       -0.567391    0.441922   -1.349265
      4          6           0       -0.567123   -1.389513    0.291035
      5          6           0       -2.548895   -0.000018    0.001117
      6         17           0        2.689104    0.000135    0.000517
      7          1           0       -0.957189    1.949513    0.834428
      8          1           0        0.531720    0.980508    1.092174
      9          1           0       -0.955975    0.618602    2.029073
     10          1           0       -0.955401   -0.250301   -2.107738
     11          1           0       -0.955050    1.449012   -1.550322
     12          1           0        0.532240    0.456807   -1.394996
     13          1           0       -0.955560   -1.700125    1.269666
     14          1           0        0.532529   -1.436721    0.301227
     15          1           0       -0.955171   -2.066911   -0.480685
     16          1           0       -2.914625   -0.322487    0.984154
     17          1           0       -2.915860    1.012457   -0.209506
     18          1           0       -2.917990   -0.689338   -0.768814
 ---------------------------------------------------------------------
 Rotational constants (GHZ):           4.6151064           1.1423771           1.1422670
 Leave Link  202 at Sat Aug 21 09:32:27 2021, MaxMem=   104857600 cpu:               0.9 elap:               0.1
 (Enter /sw/arch/RedHatEnterpriseServer7/EB_production/2020/software/Gaussian/g16.c01/l301.exe)
 Standard basis: TZVP (5D, 7F)
 Ernie: Thresh=  0.10000D-02 Tol=  0.10000D-05 Strict=F.
 There are   195 symmetry adapted cartesian basis functions of A   symmetry.
 There are   189 symmetry adapted basis functions of A   symmetry.
   189 basis functions,   318 primitive gaussians,   195 cartesian basis functions
    30 alpha electrons       30 beta electrons
       nuclear repulsion energy       314.1185714032 Hartrees.
 IExCor=  404 DFT=T Ex=B Corr=P86 ExCW=0 ScaHFX=  0.000000
 ScaDFX=  1.000000  1.000000  1.000000  1.000000 ScalE2=  1.000000  1.000000
 IRadAn=      5 IRanWt=     -1 IRanGd=            0 ICorTp=0 IEmpDi=131
 NAtoms=   18 NActive=   18 NUniq=   18 SFac= 1.00D+00 NAtFMM=   60 NAOKFM=F Big=F
 Integral buffers will be    131072 words long.
 Raffenetti 2 integral format.
 Two-electron integral symmetry is turned on.
 R6Disp:  Grimme-D3 Dispersion energy=       -0.0193715147 Hartrees.
 Nuclear repulsion after empirical dispersion term =      314.0991998885 Hartrees.
 ------------------------------------------------------------------------------
 Polarizable Continuum Model (PCM)
 =================================
 Model                : PCM.
 Atomic radii         : UFF (Universal Force Field).
 Polarization charges : Total charges.
 Charge compensation  : None.
 Solution method      : On-the-fly selection.
 Cavity type          : Scaled VdW (van der Waals Surface) (Alpha=1.100).
 Cavity algorithm     : GePol (No added spheres)
                        Default sphere list used, NSphG=   18.
                        Lebedev-Laikov grids with approx.  5.0 points / Ang**2.
                        Smoothing algorithm: York/Karplus (Gamma=1.0000).
                        Polarization charges: spherical gaussians, with
                                              point-specific exponents (IZeta= 3).
                        Self-potential: point-specific (ISelfS= 7).
                        Self-field    : sphere-specific E.n sum rule (ISelfD= 2).
 1st derivatives      : Analytical E(r).r(x)/FMM algorithm (CHGder, D1EAlg=3).
                        Cavity 1st derivative terms included.
 Solvent              : Water, Eps=  78.355300 Eps(inf)=   1.777849
 ------------------------------------------------------------------------------
 Spheres list:
 ISph  on   Nord     Re0    Alpha      Xe            Ye            Ze
    1   C      1    1.9255  1.100     -0.567808      0.947424      1.056313
    2   N      2    1.8300  1.100     -1.045876     -0.000315     -0.000379
    3   C      3    1.9255  1.100     -0.567391      0.441922     -1.349265
    4   C      4    1.9255  1.100     -0.567123     -1.389513      0.291035
    5   C      5    1.9255  1.100     -2.548895     -0.000018      0.001117
    6  Cl      6    1.9735  1.100      2.689104      0.000135      0.000517
    7   H      7    1.4430  1.100     -0.957189      1.949513      0.834428
    8   H      8    1.4430  1.100      0.531720      0.980508      1.092174
    9   H      9    1.4430  1.100     -0.955975      0.618602      2.029073
   10   H     10    1.4430  1.100     -0.955401     -0.250301     -2.107738
   11   H     11    1.4430  1.100     -0.955050      1.449012     -1.550322
   12   H     12    1.4430  1.100      0.532240      0.456807     -1.394996
   13   H     13    1.4430  1.100     -0.955560     -1.700125      1.269666
   14   H     14    1.4430  1.100      0.532529     -1.436721      0.301227
   15   H     15    1.4430  1.100     -0.955171     -2.066911     -0.480685
   16   H     16    1.4430  1.100     -2.914625     -0.322487      0.984154
   17   H     17    1.4430  1.100     -2.915860      1.012457     -0.209506
   18   H     18    1.4430  1.100     -2.917990     -0.689338     -0.768814
 ------------------------------------------------------------------------------
 GePol: Number of generator spheres                  =      18
 GePol: Total number of spheres                      =      18
 GePol: Number of exposed spheres                    =      17 ( 94.44%)
 GePol: Number of points                             =    1266
 GePol: Average weight of points                     =       0.15
 GePol: Minimum weight of points                     =   0.18D-11
 GePol: Maximum weight of points                     =    0.21616
 GePol: Number of points with low weight             =      56
 GePol: Fraction of low-weight points (<1% of avg)   =       4.42%
 GePol: Cavity surface area                          =    186.423 Ang**2
 GePol: Cavity volume                                =    184.714 Ang**3
 Leave Link  301 at Sat Aug 21 09:32:27 2021, MaxMem=   104857600 cpu:               1.3 elap:               0.1
 (Enter /sw/arch/RedHatEnterpriseServer7/EB_production/2020/software/Gaussian/g16.c01/l302.exe)
 NPDir=0 NMtPBC=     1 NCelOv=     1 NCel=       1 NClECP=     1 NCelD=      1
         NCelK=      1 NCelE2=     1 NClLst=     1 CellRange=     0.0.
 One-electron integrals computed using PRISM.
 One-electron integral symmetry used in STVInt
 NBasis=   189 RedAO= T EigKep=  7.63D-04  NBF=   189
 NBsUse=   189 1.00D-06 EigRej= -1.00D+00 NBFU=   189
 Precomputing XC quadrature grid using
 IXCGrd= 4 IRadAn=           5 IRanWt=          -1 IRanGd=           0 AccXCQ= 0.00D+00.
 Generated NRdTot=       0 NPtTot=           0 NUsed=           0 NTot=          32
 NSgBfM=   194   194   194   194   194 MxSgAt=    18 MxSgA2=    18.
 Leave Link  302 at Sat Aug 21 09:32:27 2021, MaxMem=   104857600 cpu:               4.1 elap:               0.2
 (Enter /sw/arch/RedHatEnterpriseServer7/EB_production/2020/software/Gaussian/g16.c01/l303.exe)
 DipDrv:  MaxL=1.
 Leave Link  303 at Sat Aug 21 09:32:28 2021, MaxMem=   104857600 cpu:               1.2 elap:               0.1
 (Enter /sw/arch/RedHatEnterpriseServer7/EB_production/2020/software/Gaussian/g16.c01/l401.exe)
 Initial guess from the checkpoint file:  "OKIZCWYLBDKLSU-UHFFFAOYSA-M.chk"
 B after Tr=     0.000000    0.000000   -0.000000
         Rot=    0.817408    0.182668    0.396586    0.375759 Ang=  70.35 deg.
 Guess basis will be translated and rotated to current coordinates.
 JPrj=2 DoOrth=T DoCkMO=T.
 Generating alternative initial guess.
 ExpMin= 9.52D-02 ExpMax= 6.95D+04 ExpMxC= 2.37D+03 IAcc=3 IRadAn=         5 AccDes= 0.00D+00
 Harris functional with IExCor=  404 and IRadAn=       5 diagonalized for initial guess.
 HarFok:  IExCor=  404 AccDes= 0.00D+00 IRadAn=         5 IDoV= 1 UseB2=F ITyADJ=14
 ICtDFT=  3500011 ScaDFX=  1.000000  1.000000  1.000000  1.000000
 FoFCou: FMM=F IPFlag=           0 FMFlag=      100000 FMFlg1=           0
         NFxFlg=           0 DoJE=T BraDBF=F KetDBF=T FulRan=T
         wScrn=  0.000000 ICntrl=       500 IOpCl=  0 I1Cent=   200000004 NGrid=           0
[...]
     18          1           0       -2.961831    0.071416    1.034513
 ---------------------------------------------------------------------
 Rotational constants (GHZ):           4.6348549           1.0882232           1.0882062
 Standard basis: TZVP (5D, 7F)
 There are   195 symmetry adapted cartesian basis functions of A   symmetry.
 There are   189 symmetry adapted basis functions of A   symmetry.
   189 basis functions,   318 primitive gaussians,   195 cartesian basis functions
    30 alpha electrons       30 beta electrons
       nuclear repulsion energy       310.9959820063 Hartrees.
 NAtoms=   18 NActive=   18 NUniq=   18 SFac= 1.00D+00 NAtFMM=   60 NAOKFM=F Big=F
 Integral buffers will be    131072 words long.
 Raffenetti 2 integral format.
 Two-electron integral symmetry is turned on.
 Warning! Using old PCM defaults because the COSMOthermo output has been requested.
 These settings can be overridden by following keywords.
 ------------------------------------------------------------------------------
 Polarizable Continuum Model (PCM)
 =================================
 Model                : C-PCM.
 Atomic radii         : Klamt.
 XCosmo               : -1.000 (infinite dielectric limit)
 Polarization charges : Electronic and nuclear charges.
 Charge compensation  : Type 3 (Electronic density weighted correction).
 Solution method      : On-the-fly selection.
 Cavity type          : VdW (van der Waals Surface) (Alpha=1.000).
 Cavity algorithm     : GePol (No added spheres)
                        Default sphere list used, NSphG=   18.
                        Tesserae with average area of 0.200 Ang**2.
                        Smoothing algorithm: None.
                        Polarization charges: point-like.
                        Self-potential: constant (ISelfS= 1).
                        Self-field    : global E.n sum rule (ISelfD= 3).
 Solvent              : Water, Eps=  78.355300 Eps(inf)=   1.777849
 ------------------------------------------------------------------------------
 Spheres list:
 ISph  on   Nord     Re0    Alpha      Xe            Ye            Ze
    1   C      1    2.0000  1.000     -0.588196     -0.096583     -1.417810
    2   N      2    1.8300  1.000     -1.102286     -0.000272      0.000118
    3   C      3    2.0000  1.000     -0.586770     -1.179336      0.793188
    4   C      4    2.0000  1.000     -0.589522      1.276934      0.625321
    5   C      5    2.0000  1.000     -2.608889     -0.001255     -0.000379
    6  Cl      6    2.0500  1.000      2.769031      0.000150     -0.000184
    7   H      7    1.3000  1.000     -0.960851     -1.027260     -1.860444
    8   H      8    1.3000  1.000      0.510068     -0.093911     -1.373731
    9   H      9    1.3000  1.000     -0.960297      0.766149     -1.982055
   10   H     10    1.3000  1.000     -0.959231     -1.097221      1.820516
   11   H     11    1.3000  1.000     -0.957795     -2.100146      0.328933
   12   H     12    1.3000  1.000      0.511453     -1.141188      0.768518
   13   H     13    1.3000  1.000     -0.963605      2.124965      0.040573
   14   H     14    1.3000  1.000      0.508699      1.239071      0.605181
   15   H     15    1.3000  1.000     -0.961475      1.334164      1.654585
   16   H     16    1.3000  1.000     -2.961168      0.858705     -0.580965
   17   H     17    1.3000  1.000     -2.961236     -0.933950     -0.455243
   18   H     18    1.3000  1.000     -2.961831      0.071416      1.034513
 ------------------------------------------------------------------------------
 One-electron integrals computed using PRISM.
 NBasis=   189 RedAO= T EigKep=  7.31D-04  NBF=   189
 NBsUse=   189 1.00D-06 EigRej= -1.00D+00 NBFU=   189
 Initial guess from the checkpoint file:  "OKIZCWYLBDKLSU-UHFFFAOYSA-M.chk"
 B after Tr=     0.000000   -0.000000    0.000000
         Rot=    1.000000   -0.000000   -0.000000   -0.000000 Ang=   0.00 deg.
 Requested convergence on RMS density matrix=1.00D-08 within 128 cycles.
 Requested convergence on MAX density matrix=1.00D-06.
 Requested convergence on             energy=1.00D-06.
 No special actions if energy rises.
 Inv3:  Mode=1 IEnd=     4064688.
 Iteration    1 A*A^-1 deviation from unit magnitude is 7.99D-15 for    807.
 Iteration    1 A*A^-1 deviation from orthogonality  is 4.55D-15 for    807    366.
 Iteration    1 A^-1*A deviation from unit magnitude is 4.88D-15 for    807.
 Iteration    1 A^-1*A deviation from orthogonality  is 4.28D-15 for   1084     23.
 Error on nuclear    polarization charges =  0.02122
 Error on electronic polarization charges = -0.05283
 SCF Done:  E(RB-P86) =  -674.751468698     A.U. after    9 cycles
            NFock=  9  Conv=0.82D-08     -V/T= 2.0039
 --------------------------------------------------------------------
 Variational C-PCM results
 =========================
 <psi(f)|   H    |psi(f)>                     (a.u.) =    -674.678587
 <psi(f)|H+V(f)/2|psi(f)>                     (a.u.) =    -674.751469
 Total free energy in solution:
 - with all non electrostatic terms           (a.u.) =    -674.739126
 --------------------------------------------------------------------
 (Polarized solute)-Solvent               (kcal/mol) =     -45.73
 --------------------------------------------------------------------
 Cavitation energy                        (kcal/mol) =      21.48
 Dispersion energy                        (kcal/mol) =     -15.01
 Repulsion energy                         (kcal/mol) =       1.27
 Total non electrostatic                  (kcal/mol) =       7.75
 --------------------------------------------------------------------
 Partition over spheres:
 Sphere  on Atom  Surface  Charge   GEl     GCav    GDR
    1      C1      14.58  -0.055   -0.90    1.71   -1.12
    2      N2       0.00   0.000    0.00    0.00    0.00
    3      C3      14.59  -0.054   -0.88    1.71   -1.12
    4      C4      14.59  -0.054   -0.87    1.71   -1.12
    5      C5      14.75  -0.073   -2.13    1.73   -1.08
    6     Cl6      43.22   0.743  -28.81    5.03   -3.28
    7      H7       6.48  -0.053   -1.23    0.92   -0.65
    8      H8       3.15  -0.009    0.07    0.45   -0.06
    9      H9       6.49  -0.052   -1.22    0.92   -0.65
   10      H10      6.48  -0.053   -1.24    0.92   -0.65
   11      H11      6.49  -0.053   -1.24    0.92   -0.65
   12      H12      3.15  -0.010    0.09    0.44   -0.06
   13      H13      6.49  -0.053   -1.26    0.92   -0.65
   14      H14      3.16  -0.005    0.03    0.45   -0.06
   15      H15      6.48  -0.053   -1.24    0.92   -0.65
   16      H16      6.48  -0.054   -1.62    0.92   -0.64
   17      H17      6.49  -0.055   -1.64    0.92   -0.64
   18      H18      6.48  -0.055   -1.65    0.92   -0.64
 --------------------------------------------------------------------
 - cavitation energy not included in the total energy.
 - dispersion energy not included in the total energy.
 - repulsion  energy not included in the total energy.
 After PCM corrections, the energy is  -674.751468698     a.u.
 --------------------------------------------------------------------
 Writing COSMO formatted file "OKIZCWYLBDKLSU-UHFFFAOYSA-M.cosmo"
 Recomputed dielectric energy= -0.073042 old= -0.072882 diff=-1.60D-04

 **********************************************************************

            Population analysis using the SCF Density.

 **********************************************************************

 Orbital symmetries:
       Occupied  (A) (A) (A) (A) (A) (A) (A) (A) (A) (A) (A) (A)
                 (A) (A) (A) (A) (A) (A) (A) (A) (A) (A) (A) (A)
                 (A) (A) (A) (A) (A) (A)
       Virtual   (A) (A) (A) (A) (A) (A) (A) (A) (A) (A) (A) (A)
                 (A) (A) (A) (A) (A) (A) (A) (A) (A) (A) (A) (A)
                 (A) (A) (A) (A) (A) (A) (A) (A) (A) (A) (A) (A)
                 (A) (A) (A) (A) (A) (A) (A) (A) (A) (A) (A) (A)
                 (A) (A) (A) (A) (A) (A) (A) (A) (A) (A) (A) (A)
                 (A) (A) (A) (A) (A) (A) (A) (A) (A) (A) (A) (A)
                 (A) (A) (A) (A) (A) (A) (A) (A) (A) (A) (A) (A)
                 (A) (A) (A) (A) (A) (A) (A) (A) (A) (A) (A) (A)
                 (A) (A) (A) (A) (A) (A) (A) (A) (A) (A) (A) (A)
                 (A) (A) (A) (A) (A) (A) (A) (A) (A) (A) (A) (A)
                 (A) (A) (A) (A) (A) (A) (A) (A) (A) (A) (A) (A)
                 (A) (A) (A) (A) (A) (A) (A) (A) (A) (A) (A) (A)
                 (A) (A) (A) (A) (A) (A) (A) (A) (A) (A) (A) (A)
                 (A) (A) (A)
 The electronic state is 1-A.
 Alpha  occ. eigenvalues -- -100.64547 -14.13166  -9.94204  -9.93780  -9.93774
 Alpha  occ. eigenvalues --   -9.93774  -9.08422  -6.90238  -6.90234  -6.90234
 Alpha  occ. eigenvalues --   -0.93326  -0.67833  -0.67479  -0.67475  -0.63476
 Alpha  occ. eigenvalues --   -0.56416  -0.47066  -0.46741  -0.46738  -0.39412
 Alpha  occ. eigenvalues --   -0.39407  -0.35791  -0.35558  -0.35555  -0.35329
 Alpha  occ. eigenvalues --   -0.35325  -0.35244  -0.21493  -0.21490  -0.21262
 Alpha virt. eigenvalues --    0.00659   0.03665   0.05661   0.05669   0.06369
 Alpha virt. eigenvalues --    0.07408   0.07411   0.09332   0.10504   0.10505
 Alpha virt. eigenvalues --    0.10712   0.11843   0.11851   0.15095   0.15148
 Alpha virt. eigenvalues --    0.15153   0.18194   0.18196   0.24348   0.24353
 Alpha virt. eigenvalues --    0.24999   0.25461   0.26121   0.26125   0.28662
 Alpha virt. eigenvalues --    0.30349   0.33676   0.33694   0.34100   0.37081
 Alpha virt. eigenvalues --    0.38353   0.38362   0.41596   0.41668   0.41669
 Alpha virt. eigenvalues --    0.42344   0.42345   0.43620   0.43629   0.44287
 Alpha virt. eigenvalues --    0.45614   0.45621   0.46294   0.46655   0.46665
 Alpha virt. eigenvalues --    0.50591   0.54708   0.64754   0.64759   0.65006
 Alpha virt. eigenvalues --    0.67375   0.77232   0.80133   0.80134   0.86515
 Alpha virt. eigenvalues --    0.86930   0.86955   0.99170   0.99183   1.16051
 Alpha virt. eigenvalues --    1.16059   1.17087   1.19497   1.19502   1.19778
 Alpha virt. eigenvalues --    1.19993   1.20000   1.27323   1.27884   1.27889
 Alpha virt. eigenvalues --    1.30046   1.30417   1.30539   1.30542   1.39343
 Alpha virt. eigenvalues --    1.43937   1.43939   1.44050   1.44749   1.47791
 Alpha virt. eigenvalues --    1.47795   1.48736   1.58043   1.58048   1.65342
 Alpha virt. eigenvalues --    1.65355   1.65887   1.68480   1.68491   1.71644
 Alpha virt. eigenvalues --    1.72145   1.72162   1.72318   1.73360   1.73363
 Alpha virt. eigenvalues --    1.73700   1.76212   1.76218   1.86099   1.88247
 Alpha virt. eigenvalues --    1.88281   1.90328   2.00425   2.00453   2.00862
 Alpha virt. eigenvalues --    2.09908   2.09912   2.11041   2.18777   2.18785
 Alpha virt. eigenvalues --    2.26114   2.26119   2.27588   2.29930   2.29978
 Alpha virt. eigenvalues --    2.29990   2.31862   2.32590   2.32602   2.37735
 Alpha virt. eigenvalues --    2.38028   2.38045   2.40989   2.41534   2.54435
 Alpha virt. eigenvalues --    2.54457   2.62752   2.62761   2.63143   2.63358
 Alpha virt. eigenvalues --    2.63361   2.64977   2.71470   2.71477   2.86738
 Alpha virt. eigenvalues --    2.86752   2.89735   2.91634   3.06713   3.07204
 Alpha virt. eigenvalues --    3.07212   3.14389   3.19112   3.19122   3.20059
 Alpha virt. eigenvalues --    3.23508   3.23520   3.29168   3.30519   3.30544
 Alpha virt. eigenvalues --    3.57669   3.57695   3.58267  21.79499  21.80947
 Alpha virt. eigenvalues --   21.81712  21.81718  24.10282  31.63198
          Condensed to atoms (all electrons):
               1          2          3          4          5          6
     1  C    5.230798   0.239263  -0.102886  -0.102680  -0.088321  -0.035049
     2  N    0.239263   6.464666   0.239193   0.239393   0.242355   0.003791
     3  C   -0.102886   0.239193   5.230820  -0.102867  -0.087915  -0.035164
     4  C   -0.102680   0.239393  -0.102867   5.230640  -0.088234  -0.034952
     5  C   -0.088321   0.242355  -0.087915  -0.088234   5.152637  -0.000132
     6  Cl  -0.035049   0.003791  -0.035164  -0.034952  -0.000132  17.839617
     7  H    0.387319  -0.018432  -0.005847   0.010141  -0.007257   0.000612
     8  H    0.347548  -0.021086  -0.002587  -0.002750   0.010195   0.046209
     9  H    0.387357  -0.018413   0.010141  -0.005840  -0.007330   0.000612
    10  H    0.010137  -0.018429   0.387299  -0.005831  -0.007233   0.000616
    11  H   -0.005790  -0.018363   0.387228   0.010142  -0.007318   0.000614
    12  H   -0.002681  -0.021061   0.347397  -0.002631   0.010177   0.046391
    13  H   -0.005872  -0.018406   0.010146   0.387243  -0.007232   0.000617
    14  H   -0.002671  -0.021084  -0.002633   0.347580   0.010171   0.046156
    15  H    0.010136  -0.018424  -0.005829   0.387376  -0.007304   0.000602
    16  H   -0.007348  -0.018224   0.010664  -0.007423   0.389030   0.000012
    17  H   -0.007377  -0.018179  -0.007314   0.010654   0.388961   0.000012
    18  H    0.010669  -0.018255  -0.007391  -0.007283   0.388983   0.000012
               7          8          9         10         11         12
     1  C    0.387319   0.347548   0.387357   0.010137  -0.005790  -0.002681
     2  N   -0.018432  -0.021086  -0.018413  -0.018429  -0.018363  -0.021061
     3  C   -0.005847  -0.002587   0.010141   0.387299   0.387228   0.347397
     4  C    0.010141  -0.002750  -0.005840  -0.005831   0.010142  -0.002631
     5  C   -0.007257   0.010195  -0.007330  -0.007233  -0.007318   0.010177
     6  Cl   0.000612   0.046209   0.000612   0.000616   0.000614   0.046391
     7  H    0.477347  -0.017930  -0.020748   0.000036   0.002711  -0.000701
     8  H   -0.017930   0.517241  -0.017951   0.000382  -0.000710  -0.001943
     9  H   -0.020748  -0.017951   0.477424  -0.000422   0.000035   0.000381
    10  H    0.000036   0.000382  -0.000422   0.477297  -0.020730  -0.017940
    11  H    0.002711  -0.000710   0.000035  -0.020730   0.477472  -0.017946
    12  H   -0.000701  -0.001943   0.000381  -0.017940  -0.017946   0.517400
    13  H    0.000036  -0.000695   0.002716   0.000037  -0.000422   0.000379
    14  H    0.000381  -0.001886  -0.000704  -0.000707   0.000381  -0.001911
    15  H   -0.000422   0.000379   0.000037   0.002709   0.000036  -0.000705
    16  H   -0.000072   0.000050   0.002947   0.000016   0.000018  -0.000493
    17  H    0.002934   0.000048  -0.000065  -0.000070   0.002940   0.000050
    18  H    0.000018  -0.000492   0.000019   0.002930  -0.000062   0.000048
              13         14         15         16         17         18
     1  C   -0.005872  -0.002671   0.010136  -0.007348  -0.007377   0.010669
     2  N   -0.018406  -0.021084  -0.018424  -0.018224  -0.018179  -0.018255
     3  C    0.010146  -0.002633  -0.005829   0.010664  -0.007314  -0.007391
     4  C    0.387243   0.347580   0.387376  -0.007423   0.010654  -0.007283
     5  C   -0.007232   0.010171  -0.007304   0.389030   0.388961   0.388983
     6  Cl   0.000617   0.046156   0.000602   0.000012   0.000012   0.000012
     7  H    0.000036   0.000381  -0.000422  -0.000072   0.002934   0.000018
     8  H   -0.000695  -0.001886   0.000379   0.000050   0.000048  -0.000492
     9  H    0.002716  -0.000704   0.000037   0.002947  -0.000065   0.000019
    10  H    0.000037  -0.000707   0.002709   0.000016  -0.000070   0.002930
    11  H   -0.000422   0.000381   0.000036   0.000018   0.002940  -0.000062
    12  H    0.000379  -0.001911  -0.000705  -0.000493   0.000050   0.000048
    13  H    0.477532  -0.017934  -0.020766   0.002948   0.000018  -0.000078
    14  H   -0.017934   0.517030  -0.017915   0.000048  -0.000491   0.000050
    15  H   -0.020766  -0.017915   0.477226  -0.000063   0.000017   0.002934
    16  H    0.002948   0.000048  -0.000063   0.475406  -0.019685  -0.019717
    17  H    0.000018  -0.000491   0.000017  -0.019685   0.475238  -0.019633
    18  H   -0.000078   0.000050   0.002934  -0.019717  -0.019633   0.475223
 Mulliken charges:
               1
     1  C   -0.262552
     2  N   -0.200306
     3  C   -0.262454
     4  C   -0.262679
     5  C   -0.284234
     6  Cl  -0.880578
     7  H    0.189874
     8  H    0.145978
     9  H    0.189802
    10  H    0.189902
    11  H    0.189763
    12  H    0.145787
    13  H    0.189733
    14  H    0.146137
    15  H    0.189974
    16  H    0.191887
    17  H    0.191941
    18  H    0.192024
 Sum of Mulliken charges =   0.00000
 Mulliken charges with hydrogens summed into heavy atoms:
               1
     1  C    0.263102
     2  N   -0.200306
     3  C    0.262999
     4  C    0.263165
     5  C    0.291618
     6  Cl  -0.880578
 Electronic spatial extent (au):  <R**2>=           1156.5578
 Charge=              0.0000 electrons
 Dipole moment (field-independent basis, Debye):
    X=            -17.4373    Y=             -0.0007    Z=              0.0022  Tot=             17.4373
 Quadrupole moment (field-independent basis, Debye-Ang):
   XX=            -71.6315   YY=            -43.2800   ZZ=            -43.2796
   XY=             -0.0003   XZ=              0.0011   YZ=              0.0007
 Traceless Quadrupole moment (field-independent basis, Debye-Ang):
   XX=            -18.9011   YY=              9.4504   ZZ=              9.4507
   XY=             -0.0003   XZ=              0.0011   YZ=              0.0007
 Octapole moment (field-independent basis, Debye-Ang**2):
  XXX=           -143.5834  YYY=             -0.0721  ZZZ=              0.3211  XYY=            -14.4053
  XXY=             -0.0115  XXZ=              0.0017  XZZ=            -14.4099  YZZ=              0.0668
  YYZ=             -0.3036  XYZ=             -0.0035
 Hexadecapole moment (field-independent basis, Debye-Ang**3):
 XXXX=          -1370.9499 YYYY=           -202.4795 ZZZZ=           -202.4573 XXXY=              0.0327
 XXXZ=              0.0176 YYYX=              0.8737 YYYZ=              0.0072 ZZZX=             -4.2035
 ZZZY=              0.0015 XXYY=           -224.1522 XXZZ=           -224.1371 YYZZ=            -67.4873
 XXYZ=              0.0040 YYXZ=              4.1976 ZZXY=             -0.8831
 N-N= 3.109959820063D+02 E-N=-2.212627685891D+03  KE= 6.721624413037D+02
 Unable to Open any file for archive entry.
 1\1\GINC-TCN1279\SP\RBP86\TZVP\C4H12Cl1N1\ELENAA\21-Aug-2021\0\\# BP86
 /TZVP SCRF=COSMORS geom=CHECKPOINT guess=CHECKPOINT\\COSMO-file for #O
 KIZCWYLBDKLSU-UHFFFAOYSA-M\\0,1\C,0,0.0129834224,1.3211776088,0.574960
 8547\N,0,1.4973740645,1.2804162631,0.2938818731\C,0,1.7450712983,0.425
 5124018,-0.9278762452\C,0,1.9867622097,2.6843886427,0.0210771153\C,0,2
 .2273392175,0.7050001838,1.4795897074\Cl,0,-0.3800069366,2.7569687231,
 -2.7528096125\H,0,-0.3329699938,0.2991100962,0.7664060956\H,0,-0.48121
 59901,1.7444877749,-0.3108768664\H,0,-0.1569240348,1.9494166552,1.4567
 687324\H,0,2.8224809605,0.4073722184,-1.1272086167\H,0,1.3812707853,-0
 .587835183,-0.7232828046\H,0,1.1972963942,0.8783438461,-1.7663538429\H
 ,0,1.7978711489,3.2973400485,0.9096917776\H,0,1.4309782859,3.067252808
 1,-0.8463603044\H,0,3.0616919332,2.6435574972,-0.1883660037\H,0,2.0333
 253516,1.3374743404,2.3531155174\H,0,1.8606997821,-0.3117583692,1.6605
 485054\H,0,3.3003121011,0.6859384437,1.2577441177\\Version=ES64L-G16Re
 vC.01\State=1-A\HF=-674.7514687\RMSD=8.170e-09\Dipole=3.3272657,-2.616
 1488,5.3990438\Quadrupole=2.0697084,3.9612456,-6.030954,3.8981261,-8.0
 448707,6.325785\PG=C01 [X(C4H12Cl1N1)]\\@
 The archive entry for this job was punched.


 BETTER TO HUNT IN FIELDS, FOR HEALTH UNBOUGHT
 THAN FEE THE DOCTOR FOR A NAUSEOUS DRAUGHT.
 THE WISE, FOR CURE, ON EXERCISE DEPEND;
 GOD NEVER MADE HIS WORK FOR MAN TO MEND.
     -- JOHN DRYDEN (1631-1700)
 Job cpu time:       0 days  0 hours  3 minutes 19.9 seconds.
 Elapsed time:       0 days  0 hours  0 minutes  8.7 seconds.
 File lengths (MBytes):  RWF=     34 Int=      0 D2E=      0 Chk=      6 Scr=      1
 Normal termination of Gaussian 16 at Sat Aug 21 09:41:07 2021.
