 Entering Gaussian System, Link 0=g16
 Input=OSBSFAARYOCBHB-UHFFFAOYSA-N.gjf
 Output=OSBSFAARYOCBHB-UHFFFAOYSA-N.log
 Initial command:
 /sw/arch/RedHatEnterpriseServer7/EB_production/2019/software/Gaussian/g16.c01/l1.exe "/scratch-local/elenaa.9715945/Gau-13458.inp" -scrdir="/scratch-local/elenaa.9715945/"
 Entering Link 1 = /sw/arch/RedHatEnterpriseServer7/EB_production/2019/software/Gaussian/g16.c01/l1.exe PID=     13460.
  
 Copyright (c) 1988-2019, Gaussian, Inc.  All Rights Reserved.
  
 This is part of the Gaussian(R) 16 program.  It is based on
 the Gaussian(R) 09 system (copyright 2009, Gaussian, Inc.),
 the Gaussian(R) 03 system (copyright 2003, Gaussian, Inc.),
 the Gaussian(R) 98 system (copyright 1998, Gaussian, Inc.),
 the Gaussian(R) 94 system (copyright 1995, Gaussian, Inc.),
 the Gaussian 92(TM) system (copyright 1992, Gaussian, Inc.),
 the Gaussian 90(TM) system (copyright 1990, Gaussian, Inc.),
 the Gaussian 88(TM) system (copyright 1988, Gaussian, Inc.),
 the Gaussian 86(TM) system (copyright 1986, Carnegie Mellon
 University), and the Gaussian 82(TM) system (copyright 1983,
 Carnegie Mellon University). Gaussian is a federally registered
 trademark of Gaussian, Inc.
  
 This software contains proprietary and confidential information,
 including trade secrets, belonging to Gaussian, Inc.
  
 This software is provided under written license and may be
 used, copied, transmitted, or stored only in accord with that
 written license.
  
 The following legend is applicable only to US Government
 contracts under FAR:
  
                    RESTRICTED RIGHTS LEGEND
  
 Use, reproduction and disclosure by the US Government is
 subject to restrictions as set forth in subparagraphs (a)
 and (c) of the Commercial Computer Software - Restricted
 Rights clause in FAR 52.227-19.
  
 Gaussian, Inc.
 340 Quinnipiac St., Bldg. 40, Wallingford CT 06492
  
  
 ---------------------------------------------------------------
 Warning -- This program may not be used in any manner that
 competes with the business of Gaussian, Inc. or will provide
 assistance to any competitor of Gaussian, Inc.  The licensee
 of this program is prohibited from giving any competitor of
 Gaussian, Inc. access to this program.  By using this program,
 the user acknowledges that Gaussian, Inc. is engaged in the
 business of creating and licensing software in the field of
 computational chemistry and represents and warrants to the
 licensee that it is not a competitor of Gaussian, Inc. and that
 it will not use this program in any manner prohibited above.
 ---------------------------------------------------------------
  

 Cite this work as:
 Gaussian 16, Revision C.01,
 M. J. Frisch, G. W. Trucks, H. B. Schlegel, G. E. Scuseria, 
 M. A. Robb, J. R. Cheeseman, G. Scalmani, V. Barone, 
 G. A. Petersson, H. Nakatsuji, X. Li, M. Caricato, A. V. Marenich, 
 J. Bloino, B. G. Janesko, R. Gomperts, B. Mennucci, H. P. Hratchian, 
 J. V. Ortiz, A. F. Izmaylov, J. L. Sonnenberg, D. Williams-Young, 
 F. Ding, F. Lipparini, F. Egidi, J. Goings, B. Peng, A. Petrone, 
 T. Henderson, D. Ranasinghe, V. G. Zakrzewski, J. Gao, N. Rega, 
 G. Zheng, W. Liang, M. Hada, M. Ehara, K. Toyota, R. Fukuda, 
 J. Hasegawa, M. Ishida, T. Nakajima, Y. Honda, O. Kitao, H. Nakai, 
 T. Vreven, K. Throssell, J. A. Montgomery, Jr., J. E. Peralta, 
 F. Ogliaro, M. J. Bearpark, J. J. Heyd, E. N. Brothers, K. N. Kudin, 
 V. N. Staroverov, T. A. Keith, R. Kobayashi, J. Normand, 
 K. Raghavachari, A. P. Rendell, J. C. Burant, S. S. Iyengar, 
 J. Tomasi, M. Cossi, J. M. Millam, M. Klene, C. Adamo, R. Cammi, 
 J. W. Ochterski, R. L. Martin, K. Morokuma, O. Farkas, 
 J. B. Foresman, and D. J. Fox, Gaussian, Inc., Wallingford CT, 2019.
 
 ******************************************
 Gaussian 16:  ES64L-G16RevC.01  3-Jul-2019
                23-Feb-2021 
 ******************************************
 %chk=OSBSFAARYOCBHB-UHFFFAOYSA-N.chk
 %NProcShared=32
 Will use up to   32 processors via shared memory.
 -------------------------------------------------------------
 #P BP86/TZVP EmpiricalDispersion=GD3 SCRF=(Solvent=Water) Opt
 -------------------------------------------------------------
 1/18=20,19=15,26=3,38=1/1,3;
 2/9=110,12=2,17=6,18=5,40=1/2;
 3/5=19,7=101,11=2,25=1,30=1,70=2201,71=1,72=1,74=404,124=31/1,2,3;
 4//1;
 5/5=2,38=5,53=1/2;
 6/7=2,8=2,9=2,10=2,28=1/1;
 7//1,2,3,16;
 1/18=20,19=15,26=3/3(2);
 2/9=110/2;
 99//99;
 2/9=110/2;
 3/5=19,7=101,11=2,25=1,30=1,70=2205,71=1,72=1,74=404,124=31/1,2,3;
 4/5=5,16=3,69=1/1;
 5/5=2,38=5,53=1/2;
 7//1,2,3,16;
 1/18=20,19=15,26=3/3(-5);
 2/9=110/2;
 6/7=2,8=2,9=2,10=2,19=2,28=1/1;
 99/9=1/99;
 Leave Link    1 at Tue Feb 23 00:11:09 2021, MaxMem=           0 cpu:               2.2 elap:               0.1
 (Enter /sw/arch/RedHatEnterpriseServer7/EB_production/2019/software/Gaussian/g16.c01/l101.exe)
 -------------------------------------
 Particle #OSBSFAARYOCBHB-UHFFFAOYSA-N
 -------------------------------------
 Symbolic Z-matrix:
 Charge =  1 Multiplicity = 1
 C                     2.97912   2.16678   2.04364 
 C                     1.85106   1.77618   1.05873 
 C                     0.58873   1.20139   1.77763 
 N                    -0.62198   0.7654    0.94251 
 C                    -1.68287   0.2537    1.92534 
 C                    -3.0496   -0.26834   1.37739 
 C                    -4.00419  -0.74661   2.49773 
 C                    -1.16565   1.9403    0.11951 
 C                    -1.656     3.2299    0.85245 
 C                    -2.17252   4.31621  -0.12135 
 C                    -0.22809  -0.3338   -0.05244 
 C                     0.36665  -1.67615   0.48148 
 C                     0.7097   -2.67479  -0.64998 
 H                     3.83296   2.56076   1.48863 
 H                     2.63278   2.93515   2.73791 
 H                     3.30863   1.29584   2.61395 
 H                     2.25951   1.03874   0.36586 
 H                     1.58747   2.66881   0.48912 
 H                     0.93449   0.3602    2.38474 
 H                     0.27675   1.95558   2.50538 
 H                    -1.26132  -0.55588   2.52752 
 H                    -1.91906   1.03951   2.64816 
 H                    -3.56074   0.52101   0.82388 
 H                    -2.88871  -1.10905   0.70062 
 H                    -4.23015   0.07199   3.18416 
 H                    -3.5543   -1.56732   3.06021 
 H                    -4.9399   -1.09921   2.05907 
 H                    -0.40799   2.26248  -0.60013 
 H                    -2.00162   1.59763  -0.4965 
 H                    -2.46987   2.98821   1.53795 
 H                    -0.8416    3.66751   1.43207 
 H                    -3.01821   3.94054  -0.70104 
 H                    -1.3807    4.62369  -0.80752 
 H                    -2.50088   5.19127   0.44322 
 H                    -1.09534  -0.6006   -0.66272 
 H                     0.49829   0.06426  -0.76635 
 H                     1.28322  -1.48637   1.04236 
 H                    -0.34506  -2.16567   1.14824 
 H                     1.45183  -2.24678  -1.32703 
 H                    -0.18568  -2.92994  -1.22056 
 H                     1.11993  -3.59124  -0.22088 
 
 ITRead=  0  0  0  0  0  0  0  0  0  0  0  0  0  0  0  0  0  0  0  0
 ITRead=  0  0  0  0  0  0  0  0  0  0  0  0  0  0  0  0  0  0  0  0
 ITRead=  0
 MicOpt= -1 -1 -1 -1 -1 -1 -1 -1 -1 -1 -1 -1 -1 -1 -1 -1 -1 -1 -1 -1
 MicOpt= -1 -1 -1 -1 -1 -1 -1 -1 -1 -1 -1 -1 -1 -1 -1 -1 -1 -1 -1 -1
 MicOpt= -1
 NAtoms=     41 NQM=       41 NQMF=       0 NMMI=      0 NMMIF=      0
                NMic=       0 NMicF=      0.
                    Isotopes and Nuclear Properties:
 (Nuclear quadrupole moments (NQMom) in fm**2, nuclear magnetic moments (NMagM)
  in nuclear magnetons)

  Atom         1           2           3           4           5           6           7           8           9          10
 IAtWgt=          12          12          12          14          12          12          12          12          12          12
 AtmWgt=  12.0000000  12.0000000  12.0000000  14.0030740  12.0000000  12.0000000  12.0000000  12.0000000  12.0000000  12.0000000
 NucSpn=           0           0           0           2           0           0           0           0           0           0
 AtZEff=  -0.0000000  -0.0000000  -0.0000000  -0.0000000  -0.0000000  -0.0000000  -0.0000000  -0.0000000  -0.0000000  -0.0000000
 NQMom=    0.0000000   0.0000000   0.0000000   2.0440000   0.0000000   0.0000000   0.0000000   0.0000000   0.0000000   0.0000000
 NMagM=    0.0000000   0.0000000   0.0000000   0.4037610   0.0000000   0.0000000   0.0000000   0.0000000   0.0000000   0.0000000
 AtZNuc=   6.0000000   6.0000000   6.0000000   7.0000000   6.0000000   6.0000000   6.0000000   6.0000000   6.0000000   6.0000000

  Atom        11          12          13          14          15          16          17          18          19          20
 IAtWgt=          12          12          12           1           1           1           1           1           1           1
 AtmWgt=  12.0000000  12.0000000  12.0000000   1.0078250   1.0078250   1.0078250   1.0078250   1.0078250   1.0078250   1.0078250
 NucSpn=           0           0           0           1           1           1           1           1           1           1
 AtZEff=  -0.0000000  -0.0000000  -0.0000000  -0.0000000  -0.0000000  -0.0000000  -0.0000000  -0.0000000  -0.0000000  -0.0000000
 NQMom=    0.0000000   0.0000000   0.0000000   0.0000000   0.0000000   0.0000000   0.0000000   0.0000000   0.0000000   0.0000000
 NMagM=    0.0000000   0.0000000   0.0000000   2.7928460   2.7928460   2.7928460   2.7928460   2.7928460   2.7928460   2.7928460
 AtZNuc=   6.0000000   6.0000000   6.0000000   1.0000000   1.0000000   1.0000000   1.0000000   1.0000000   1.0000000   1.0000000

  Atom        21          22          23          24          25          26          27          28          29          30
 IAtWgt=           1           1           1           1           1           1           1           1           1           1
 AtmWgt=   1.0078250   1.0078250   1.0078250   1.0078250   1.0078250   1.0078250   1.0078250   1.0078250   1.0078250   1.0078250
 NucSpn=           1           1           1           1           1           1           1           1           1           1
 AtZEff=  -0.0000000  -0.0000000  -0.0000000  -0.0000000  -0.0000000  -0.0000000  -0.0000000  -0.0000000  -0.0000000  -0.0000000
 NQMom=    0.0000000   0.0000000   0.0000000   0.0000000   0.0000000   0.0000000   0.0000000   0.0000000   0.0000000   0.0000000
 NMagM=    2.7928460   2.7928460   2.7928460   2.7928460   2.7928460   2.7928460   2.7928460   2.7928460   2.7928460   2.7928460
 AtZNuc=   1.0000000   1.0000000   1.0000000   1.0000000   1.0000000   1.0000000   1.0000000   1.0000000   1.0000000   1.0000000

  Atom        31          32          33          34          35          36          37          38          39          40
 IAtWgt=           1           1           1           1           1           1           1           1           1           1
 AtmWgt=   1.0078250   1.0078250   1.0078250   1.0078250   1.0078250   1.0078250   1.0078250   1.0078250   1.0078250   1.0078250
 NucSpn=           1           1           1           1           1           1           1           1           1           1
 AtZEff=  -0.0000000  -0.0000000  -0.0000000  -0.0000000  -0.0000000  -0.0000000  -0.0000000  -0.0000000  -0.0000000  -0.0000000
 NQMom=    0.0000000   0.0000000   0.0000000   0.0000000   0.0000000   0.0000000   0.0000000   0.0000000   0.0000000   0.0000000
 NMagM=    2.7928460   2.7928460   2.7928460   2.7928460   2.7928460   2.7928460   2.7928460   2.7928460   2.7928460   2.7928460
 AtZNuc=   1.0000000   1.0000000   1.0000000   1.0000000   1.0000000   1.0000000   1.0000000   1.0000000   1.0000000   1.0000000

  Atom        41
 IAtWgt=           1
 AtmWgt=   1.0078250
 NucSpn=           1
 AtZEff=  -0.0000000
 NQMom=    0.0000000
 NMagM=    2.7928460
 AtZNuc=   1.0000000
 Leave Link  101 at Tue Feb 23 00:11:09 2021, MaxMem=   104857600 cpu:               2.7 elap:               0.1
 (Enter /sw/arch/RedHatEnterpriseServer7/EB_production/2019/software/Gaussian/g16.c01/l103.exe)

 GradGradGradGradGradGradGradGradGradGradGradGradGradGradGradGradGradGrad
 Berny optimization.
 Initialization pass.
                           ----------------------------
                           !    Initial Parameters    !
                           ! (Angstroms and Degrees)  !
 --------------------------                            --------------------------
 ! Name  Definition              Value          Derivative Info.                !
 --------------------------------------------------------------------------------
 ! R1    R(1,2)                  1.5476         estimate D2E/DX2                !
 ! R2    R(1,14)                 1.0919         estimate D2E/DX2                !
 ! R3    R(1,15)                 1.0919         estimate D2E/DX2                !
 ! R4    R(1,16)                 1.092          estimate D2E/DX2                !
 ! R5    R(2,3)                  1.5623         estimate D2E/DX2                !
 ! R6    R(2,17)                 1.0912         estimate D2E/DX2                !
 ! R7    R(2,18)                 1.0912         estimate D2E/DX2                !
 ! R8    R(3,4)                  1.5341         estimate D2E/DX2                !
 ! R9    R(3,19)                 1.0935         estimate D2E/DX2                !
 ! R10   R(3,20)                 1.0935         estimate D2E/DX2                !
 ! R11   R(4,5)                  1.534          estimate D2E/DX2                !
 ! R12   R(4,8)                  1.534          estimate D2E/DX2                !
 ! R13   R(4,11)                 1.5341         estimate D2E/DX2                !
 ! R14   R(5,6)                  1.5623         estimate D2E/DX2                !
 ! R15   R(5,21)                 1.0935         estimate D2E/DX2                !
 ! R16   R(5,22)                 1.0935         estimate D2E/DX2                !
 ! R17   R(6,7)                  1.5476         estimate D2E/DX2                !
 ! R18   R(6,23)                 1.0912         estimate D2E/DX2                !
 ! R19   R(6,24)                 1.0912         estimate D2E/DX2                !
 ! R20   R(7,25)                 1.0919         estimate D2E/DX2                !
 ! R21   R(7,26)                 1.0919         estimate D2E/DX2                !
 ! R22   R(7,27)                 1.0919         estimate D2E/DX2                !
 ! R23   R(8,9)                  1.5623         estimate D2E/DX2                !
 ! R24   R(8,28)                 1.0935         estimate D2E/DX2                !
 ! R25   R(8,29)                 1.0935         estimate D2E/DX2                !
 ! R26   R(9,10)                 1.5476         estimate D2E/DX2                !
 ! R27   R(9,30)                 1.0912         estimate D2E/DX2                !
 ! R28   R(9,31)                 1.0912         estimate D2E/DX2                !
 ! R29   R(10,32)                1.092          estimate D2E/DX2                !
 ! R30   R(10,33)                1.0919         estimate D2E/DX2                !
 ! R31   R(10,34)                1.0919         estimate D2E/DX2                !
 ! R32   R(11,12)                1.5623         estimate D2E/DX2                !
 ! R33   R(11,35)                1.0935         estimate D2E/DX2                !
 ! R34   R(11,36)                1.0935         estimate D2E/DX2                !
 ! R35   R(12,13)                1.5476         estimate D2E/DX2                !
 ! R36   R(12,37)                1.0912         estimate D2E/DX2                !
 ! R37   R(12,38)                1.0912         estimate D2E/DX2                !
 ! R38   R(13,39)                1.0919         estimate D2E/DX2                !
 ! R39   R(13,40)                1.092          estimate D2E/DX2                !
 ! R40   R(13,41)                1.0919         estimate D2E/DX2                !
 ! A1    A(2,1,14)             109.7282         estimate D2E/DX2                !
 ! A2    A(2,1,15)             110.5507         estimate D2E/DX2                !
 ! A3    A(2,1,16)             110.5505         estimate D2E/DX2                !
 ! A4    A(14,1,15)            108.4996         estimate D2E/DX2                !
 ! A5    A(14,1,16)            108.4989         estimate D2E/DX2                !
 ! A6    A(15,1,16)            108.9585         estimate D2E/DX2                !
 ! A7    A(1,2,3)              112.8903         estimate D2E/DX2                !
 ! A8    A(1,2,17)             107.5669         estimate D2E/DX2                !
 ! A9    A(1,2,18)             107.5667         estimate D2E/DX2                !
 ! A10   A(3,2,17)             110.2424         estimate D2E/DX2                !
 ! A11   A(3,2,18)             110.2424         estimate D2E/DX2                !
 ! A12   A(17,2,18)            108.1673         estimate D2E/DX2                !
 ! A13   A(2,3,4)              119.4562         estimate D2E/DX2                !
 ! A14   A(2,3,19)             106.4407         estimate D2E/DX2                !
 ! A15   A(2,3,20)             106.4407         estimate D2E/DX2                !
 ! A16   A(4,3,19)             109.4608         estimate D2E/DX2                !
 ! A17   A(4,3,20)             109.4601         estimate D2E/DX2                !
 ! A18   A(19,3,20)            104.5531         estimate D2E/DX2                !
 ! A19   A(3,4,5)              106.967          estimate D2E/DX2                !
 ! A20   A(3,4,8)              110.7377         estimate D2E/DX2                !
 ! A21   A(3,4,11)             110.7368         estimate D2E/DX2                !
 ! A22   A(5,4,8)              110.7381         estimate D2E/DX2                !
 ! A23   A(5,4,11)             110.7377         estimate D2E/DX2                !
 ! A24   A(8,4,11)             106.9672         estimate D2E/DX2                !
 ! A25   A(4,5,6)              119.4558         estimate D2E/DX2                !
 ! A26   A(4,5,21)             109.4613         estimate D2E/DX2                !
 ! A27   A(4,5,22)             109.4611         estimate D2E/DX2                !
 ! A28   A(6,5,21)             106.4397         estimate D2E/DX2                !
 ! A29   A(6,5,22)             106.44           estimate D2E/DX2                !
 ! A30   A(21,5,22)            104.5536         estimate D2E/DX2                !
 ! A31   A(5,6,7)              112.8902         estimate D2E/DX2                !
 ! A32   A(5,6,23)             110.2417         estimate D2E/DX2                !
 ! A33   A(5,6,24)             110.2423         estimate D2E/DX2                !
 ! A34   A(7,6,23)             107.5673         estimate D2E/DX2                !
 ! A35   A(7,6,24)             107.5673         estimate D2E/DX2                !
 ! A36   A(23,6,24)            108.1673         estimate D2E/DX2                !
 ! A37   A(6,7,25)             110.5506         estimate D2E/DX2                !
 ! A38   A(6,7,26)             110.5508         estimate D2E/DX2                !
 ! A39   A(6,7,27)             109.7272         estimate D2E/DX2                !
 ! A40   A(25,7,26)            108.9591         estimate D2E/DX2                !
 ! A41   A(25,7,27)            108.4992         estimate D2E/DX2                !
 ! A42   A(26,7,27)            108.4995         estimate D2E/DX2                !
 ! A43   A(4,8,9)              119.4556         estimate D2E/DX2                !
 ! A44   A(4,8,28)             109.461          estimate D2E/DX2                !
 ! A45   A(4,8,29)             109.4606         estimate D2E/DX2                !
 ! A46   A(9,8,28)             106.4403         estimate D2E/DX2                !
 ! A47   A(9,8,29)             106.4402         estimate D2E/DX2                !
 ! A48   A(28,8,29)            104.5539         estimate D2E/DX2                !
 ! A49   A(8,9,10)             112.89           estimate D2E/DX2                !
 ! A50   A(8,9,30)             110.2423         estimate D2E/DX2                !
 ! A51   A(8,9,31)             110.2423         estimate D2E/DX2                !
 ! A52   A(10,9,30)            107.5672         estimate D2E/DX2                !
 ! A53   A(10,9,31)            107.5671         estimate D2E/DX2                !
 ! A54   A(30,9,31)            108.1672         estimate D2E/DX2                !
 ! A55   A(9,10,32)            110.5505         estimate D2E/DX2                !
 ! A56   A(9,10,33)            110.5505         estimate D2E/DX2                !
 ! A57   A(9,10,34)            109.7274         estimate D2E/DX2                !
 ! A58   A(32,10,33)           108.9586         estimate D2E/DX2                !
 ! A59   A(32,10,34)           108.4994         estimate D2E/DX2                !
 ! A60   A(33,10,34)           108.5            estimate D2E/DX2                !
 ! A61   A(4,11,12)            119.4562         estimate D2E/DX2                !
 ! A62   A(4,11,35)            109.4604         estimate D2E/DX2                !
 ! A63   A(4,11,36)            109.4606         estimate D2E/DX2                !
 ! A64   A(12,11,35)           106.4403         estimate D2E/DX2                !
 ! A65   A(12,11,36)           106.4406         estimate D2E/DX2                !
 ! A66   A(35,11,36)           104.5534         estimate D2E/DX2                !
 ! A67   A(11,12,13)           112.8899         estimate D2E/DX2                !
 ! A68   A(11,12,37)           110.2427         estimate D2E/DX2                !
 ! A69   A(11,12,38)           110.2419         estimate D2E/DX2                !
 ! A70   A(13,12,37)           107.567          estimate D2E/DX2                !
 ! A71   A(13,12,38)           107.567          estimate D2E/DX2                !
 ! A72   A(37,12,38)           108.1675         estimate D2E/DX2                !
 ! A73   A(12,13,39)           110.5503         estimate D2E/DX2                !
 ! A74   A(12,13,40)           110.5507         estimate D2E/DX2                !
 ! A75   A(12,13,41)           109.7276         estimate D2E/DX2                !
 ! A76   A(39,13,40)           108.9589         estimate D2E/DX2                !
 ! A77   A(39,13,41)           108.4999         estimate D2E/DX2                !
 ! A78   A(40,13,41)           108.4991         estimate D2E/DX2                !
 ! D1    D(14,1,2,3)           179.9997         estimate D2E/DX2                !
 ! D2    D(14,1,2,17)           58.1558         estimate D2E/DX2                !
 ! D3    D(14,1,2,18)          -58.1566         estimate D2E/DX2                !
 ! D4    D(15,1,2,3)           -60.3679         estimate D2E/DX2                !
 ! D5    D(15,1,2,17)          177.7882         estimate D2E/DX2                !
 ! D6    D(15,1,2,18)           61.4757         estimate D2E/DX2                !
 ! D7    D(16,1,2,3)            60.3683         estimate D2E/DX2                !
 ! D8    D(16,1,2,17)          -61.4755         estimate D2E/DX2                !
 ! D9    D(16,1,2,18)         -177.788          estimate D2E/DX2                !
 ! D10   D(1,2,3,4)            179.9996         estimate D2E/DX2                !
 ! D11   D(1,2,3,19)           -55.5573         estimate D2E/DX2                !
 ! D12   D(1,2,3,20)            55.5573         estimate D2E/DX2                !
 ! D13   D(17,2,3,4)           -59.6767         estimate D2E/DX2                !
 ! D14   D(17,2,3,19)           64.7665         estimate D2E/DX2                !
 ! D15   D(17,2,3,20)          175.8811         estimate D2E/DX2                !
 ! D16   D(18,2,3,4)            59.676          estimate D2E/DX2                !
 ! D17   D(18,2,3,19)         -175.8808         estimate D2E/DX2                !
 ! D18   D(18,2,3,20)          -64.7662         estimate D2E/DX2                !
 ! D19   D(2,3,4,5)           -180.0            estimate D2E/DX2                !
 ! D20   D(2,3,4,8)            -59.2445         estimate D2E/DX2                !
 ! D21   D(2,3,4,11)            59.2455         estimate D2E/DX2                !
 ! D22   D(19,3,4,5)            57.0237         estimate D2E/DX2                !
 ! D23   D(19,3,4,8)           177.7792         estimate D2E/DX2                !
 ! D24   D(19,3,4,11)          -63.7309         estimate D2E/DX2                !
 ! D25   D(20,3,4,5)           -57.0242         estimate D2E/DX2                !
 ! D26   D(20,3,4,8)            63.7313         estimate D2E/DX2                !
 ! D27   D(20,3,4,11)         -177.7788         estimate D2E/DX2                !
 ! D28   D(3,4,5,6)           -179.9996         estimate D2E/DX2                !
 ! D29   D(3,4,5,21)           -57.0243         estimate D2E/DX2                !
 ! D30   D(3,4,5,22)            57.025          estimate D2E/DX2                !
 ! D31   D(8,4,5,6)             59.2451         estimate D2E/DX2                !
 ! D32   D(8,4,5,21)          -177.7796         estimate D2E/DX2                !
 ! D33   D(8,4,5,22)           -63.7303         estimate D2E/DX2                !
 ! D34   D(11,4,5,6)           -59.2456         estimate D2E/DX2                !
 ! D35   D(11,4,5,21)           63.7297         estimate D2E/DX2                !
 ! D36   D(11,4,5,22)          177.779          estimate D2E/DX2                !
 ! D37   D(3,4,8,9)            -59.2455         estimate D2E/DX2                !
 ! D38   D(3,4,8,28)            63.7301         estimate D2E/DX2                !
 ! D39   D(3,4,8,29)           177.7793         estimate D2E/DX2                !
 ! D40   D(5,4,8,9)             59.2449         estimate D2E/DX2                !
 ! D41   D(5,4,8,28)          -177.7794         estimate D2E/DX2                !
 ! D42   D(5,4,8,29)           -63.7302         estimate D2E/DX2                !
 ! D43   D(11,4,8,9)          -179.9997         estimate D2E/DX2                !
 ! D44   D(11,4,8,28)          -57.024          estimate D2E/DX2                !
 ! D45   D(11,4,8,29)           57.0252         estimate D2E/DX2                !
 ! D46   D(3,4,11,12)           59.2451         estimate D2E/DX2                !
 ! D47   D(3,4,11,35)         -177.7794         estimate D2E/DX2                !
 ! D48   D(3,4,11,36)          -63.7311         estimate D2E/DX2                !
 ! D49   D(5,4,11,12)          -59.2446         estimate D2E/DX2                !
 ! D50   D(5,4,11,35)           63.7309         estimate D2E/DX2                !
 ! D51   D(5,4,11,36)          177.7792         estimate D2E/DX2                !
 ! D52   D(8,4,11,12)          179.9998         estimate D2E/DX2                !
 ! D53   D(8,4,11,35)          -57.0247         estimate D2E/DX2                !
 ! D54   D(8,4,11,36)           57.0236         estimate D2E/DX2                !
 ! D55   D(4,5,6,7)           -179.9999         estimate D2E/DX2                !
 ! D56   D(4,5,6,23)           -59.6762         estimate D2E/DX2                !
 ! D57   D(4,5,6,24)            59.676          estimate D2E/DX2                !
 ! D58   D(21,5,6,7)            55.5573         estimate D2E/DX2                !
 ! D59   D(21,5,6,23)          175.881          estimate D2E/DX2                !
 ! D60   D(21,5,6,24)          -64.7668         estimate D2E/DX2                !
 ! D61   D(22,5,6,7)           -55.5571         estimate D2E/DX2                !
 ! D62   D(22,5,6,23)           64.7666         estimate D2E/DX2                !
 ! D63   D(22,5,6,24)         -175.8812         estimate D2E/DX2                !
 ! D64   D(5,6,7,25)            60.3687         estimate D2E/DX2                !
 ! D65   D(5,6,7,26)           -60.3685         estimate D2E/DX2                !
 ! D66   D(5,6,7,27)           179.9998         estimate D2E/DX2                !
 ! D67   D(23,6,7,25)          -61.4744         estimate D2E/DX2                !
 ! D68   D(23,6,7,26)          177.7883         estimate D2E/DX2                !
 ! D69   D(23,6,7,27)           58.1567         estimate D2E/DX2                !
 ! D70   D(24,6,7,25)         -177.7873         estimate D2E/DX2                !
 ! D71   D(24,6,7,26)           61.4754         estimate D2E/DX2                !
 ! D72   D(24,6,7,27)          -58.1563         estimate D2E/DX2                !
 ! D73   D(4,8,9,10)          -179.9999         estimate D2E/DX2                !
 ! D74   D(4,8,9,30)           -59.676          estimate D2E/DX2                !
 ! D75   D(4,8,9,31)            59.6764         estimate D2E/DX2                !
 ! D76   D(28,8,9,10)           55.5574         estimate D2E/DX2                !
 ! D77   D(28,8,9,30)          175.8812         estimate D2E/DX2                !
 ! D78   D(28,8,9,31)          -64.7664         estimate D2E/DX2                !
 ! D79   D(29,8,9,10)          -55.5578         estimate D2E/DX2                !
 ! D80   D(29,8,9,30)           64.7661         estimate D2E/DX2                !
 ! D81   D(29,8,9,31)         -175.8815         estimate D2E/DX2                !
 ! D82   D(8,9,10,32)           60.3683         estimate D2E/DX2                !
 ! D83   D(8,9,10,33)          -60.368          estimate D2E/DX2                !
 ! D84   D(8,9,10,34)          179.9998         estimate D2E/DX2                !
 ! D85   D(30,9,10,32)         -61.4754         estimate D2E/DX2                !
 ! D86   D(30,9,10,33)         177.7883         estimate D2E/DX2                !
 ! D87   D(30,9,10,34)          58.1561         estimate D2E/DX2                !
 ! D88   D(31,9,10,32)        -177.788          estimate D2E/DX2                !
 ! D89   D(31,9,10,33)          61.4756         estimate D2E/DX2                !
 ! D90   D(31,9,10,34)         -58.1566         estimate D2E/DX2                !
 ! D91   D(4,11,12,13)         179.9996         estimate D2E/DX2                !
 ! D92   D(4,11,12,37)         -59.6765         estimate D2E/DX2                !
 ! D93   D(4,11,12,38)          59.6763         estimate D2E/DX2                !
 ! D94   D(35,11,12,13)         55.5573         estimate D2E/DX2                !
 ! D95   D(35,11,12,37)        175.8812         estimate D2E/DX2                !
 ! D96   D(35,11,12,38)        -64.766          estimate D2E/DX2                !
 ! D97   D(36,11,12,13)        -55.5575         estimate D2E/DX2                !
 ! D98   D(36,11,12,37)         64.7664         estimate D2E/DX2                !
 ! D99   D(36,11,12,38)       -175.8808         estimate D2E/DX2                !
 ! D100  D(11,12,13,39)         60.3685         estimate D2E/DX2                !
 ! D101  D(11,12,13,40)        -60.3681         estimate D2E/DX2                !
 ! D102  D(11,12,13,41)       -179.9994         estimate D2E/DX2                !
 ! D103  D(37,12,13,39)        -61.4756         estimate D2E/DX2                !
 ! D104  D(37,12,13,40)        177.7879         estimate D2E/DX2                !
 ! D105  D(37,12,13,41)         58.1565         estimate D2E/DX2                !
 ! D106  D(38,12,13,39)       -177.7884         estimate D2E/DX2                !
 ! D107  D(38,12,13,40)         61.475          estimate D2E/DX2                !
 ! D108  D(38,12,13,41)        -58.1563         estimate D2E/DX2                !
 --------------------------------------------------------------------------------
 Trust Radius=3.00D-01 FncErr=1.00D-07 GrdErr=1.00D-06 EigMax=2.50D+02 EigMin=1.00D-04
 Number of steps in this run=    236 maximum allowed number of steps=    246.
 GradGradGradGradGradGradGradGradGradGradGradGradGradGradGradGradGradGrad

 Leave Link  103 at Tue Feb 23 00:11:09 2021, MaxMem=   104857600 cpu:               0.4 elap:               0.0
 (Enter /sw/arch/RedHatEnterpriseServer7/EB_production/2019/software/Gaussian/g16.c01/l202.exe)
                          Input orientation:                          
 ---------------------------------------------------------------------
 Center     Atomic      Atomic             Coordinates (Angstroms)
 Number     Number       Type             X           Y           Z
 ---------------------------------------------------------------------
      1          6           0        2.979120    2.166780    2.043640
      2          6           0        1.851060    1.776180    1.058730
      3          6           0        0.588730    1.201390    1.777630
      4          7           0       -0.621980    0.765400    0.942510
      5          6           0       -1.682870    0.253700    1.925340
      6          6           0       -3.049600   -0.268340    1.377390
      7          6           0       -4.004190   -0.746610    2.497730
      8          6           0       -1.165650    1.940300    0.119510
      9          6           0       -1.656000    3.229900    0.852450
     10          6           0       -2.172520    4.316210   -0.121350
     11          6           0       -0.228090   -0.333800   -0.052440
     12          6           0        0.366650   -1.676150    0.481480
     13          6           0        0.709700   -2.674790   -0.649980
     14          1           0        3.832960    2.560760    1.488630
     15          1           0        2.632780    2.935150    2.737910
     16          1           0        3.308630    1.295840    2.613950
     17          1           0        2.259510    1.038740    0.365860
     18          1           0        1.587470    2.668810    0.489120
     19          1           0        0.934490    0.360200    2.384740
     20          1           0        0.276750    1.955580    2.505380
     21          1           0       -1.261320   -0.555880    2.527520
     22          1           0       -1.919060    1.039510    2.648160
     23          1           0       -3.560740    0.521010    0.823880
     24          1           0       -2.888710   -1.109050    0.700620
     25          1           0       -4.230150    0.071990    3.184160
     26          1           0       -3.554300   -1.567320    3.060210
     27          1           0       -4.939900   -1.099210    2.059070
     28          1           0       -0.407990    2.262480   -0.600130
     29          1           0       -2.001620    1.597630   -0.496500
     30          1           0       -2.469870    2.988210    1.537950
     31          1           0       -0.841600    3.667510    1.432070
     32          1           0       -3.018210    3.940540   -0.701040
     33          1           0       -1.380700    4.623690   -0.807520
     34          1           0       -2.500880    5.191270    0.443220
     35          1           0       -1.095340   -0.600600   -0.662720
     36          1           0        0.498290    0.064260   -0.766350
     37          1           0        1.283220   -1.486370    1.042360
     38          1           0       -0.345060   -2.165670    1.148240
     39          1           0        1.451830   -2.246780   -1.327030
     40          1           0       -0.185680   -2.929940   -1.220560
     41          1           0        1.119930   -3.591240   -0.220880
 ---------------------------------------------------------------------
                    Distance matrix (angstroms):
                    1          2          3          4          5
     1  C    0.000000
     2  C    1.547623   0.000000
     3  C    2.591660   1.562267   0.000000
     4  N    4.017994   2.674156   1.534057   0.000000
     5  C    5.040637   3.944315   2.465786   1.534040   0.000000
     6  C    6.535990   5.319593   3.944331   2.674150   1.562282
     7  C    7.580281   6.535988   5.040651   4.017988   2.591675
     8  C    4.575225   3.163797   2.524520   1.534046   2.524511
     9  C    4.902397   3.802016   3.163799   2.674148   3.163792
    10  C    5.987205   4.902401   4.575230   4.017988   4.575225
    11  C    4.575221   3.163792   2.524512   1.534052   2.524511
    12  C    4.902393   3.802009   3.163789   2.674155   3.163793
    13  C    5.987208   4.902400   4.575226   4.017997   4.575229
    14  H    1.091924   2.174467   3.529368   4.834052   5.994800
    15  H    1.091950   2.184935   2.847139   4.304038   5.145413
    16  H    1.091956   2.184936   2.847140   4.304042   5.145417
    17  H    2.145987   1.091200   2.193412   2.951309   4.311685
    18  H    2.145986   1.091203   2.193413   2.951305   4.311683
    19  H    2.749653   2.145554   1.093496   2.160281   2.659504
    20  H    2.749657   2.145561   1.093505   2.160279   2.659502
    21  H    5.062445   4.157254   2.659515   2.160276   1.093501
    22  H    5.062445   4.157256   2.659518   2.160277   1.093504
    23  H    6.853185   5.560412   4.311688   2.951290   2.193414
    24  H    6.853189   5.560415   4.311690   2.951294   2.193417
    25  H    7.593583   6.663545   5.145432   4.304033   2.847153
    26  H    7.593582   6.663545   5.145431   4.304037   2.847155
    27  H    8.566085   7.442156   5.994808   4.834037   3.529376
    28  H    4.297813   2.844576   2.788029   2.160273   3.469656
    29  H    5.619966   4.158577   3.469667   2.160269   2.788021
    30  H    5.533711   4.513214   3.550381   2.951293   2.871756
    31  H    4.150194   3.311636   2.871760   2.951295   3.550373
    32  H    6.829895   5.611687   5.163019   4.304032   4.719512
    33  H    5.759648   4.694196   4.719512   4.304029   5.163007
    34  H    6.460595   5.566065   5.219721   4.834034   5.219714
    35  H    5.619964   4.158575   3.469664   2.160275   2.788023
    36  H    4.297808   2.844569   2.788024   2.160279   3.469660
    37  H    4.150198   3.311637   2.871758   2.951309   3.550378
    38  H    5.533718   4.513218   3.550379   2.951302   2.871754
    39  H    5.759648   4.694192   4.719505   4.304036   5.163008
    40  H    6.829899   5.611688   5.163017   4.304041   4.719516
    41  H    6.460606   5.566071   5.219724   4.834050   5.219723
                    6          7          8          9         10
     6  C    0.000000
     7  C    1.547626   0.000000
     8  C    3.163798   4.575230   0.000000
     9  C    3.802021   4.902405   1.562278   0.000000
    10  C    4.902407   5.987215   2.591669   1.547627   0.000000
    11  C    3.163798   4.575228   2.465789   3.944326   5.040650
    12  C    3.802019   4.902403   3.944322   5.319592   6.535990
    13  C    4.902404   5.987213   5.040646   6.535992   7.580285
    14  H    7.442165   8.566090   5.219728   5.566072   6.460606
    15  H    6.663543   7.593577   4.719514   4.694195   5.759653
    16  H    6.663545   7.593579   5.163017   5.611686   6.829898
    17  H    5.560423   6.853195   3.550383   4.513222   5.533721
    18  H    5.560422   6.853194   2.871760   3.311635   4.150196
    19  H    4.157257   5.062446   3.469664   4.158573   5.619966
    20  H    4.157257   5.062444   2.788033   2.844572   4.297814
    21  H    2.145559   2.749655   3.469666   4.158577   5.619970
    22  H    2.145565   2.749658   2.788032   2.844571   4.297812
    23  H    1.091197   2.145992   2.871755   3.311636   4.150200
    24  H    1.091190   2.145988   3.550375   4.513215   5.533716
    25  H    2.184935   1.091948   4.719515   4.694200   5.759656
    26  H    2.184938   1.091948   5.163019   5.611690   6.829902
    27  H    2.174458   1.091926   5.219720   5.566069   6.460603
    28  H    4.158574   5.619966   1.093495   2.145558   2.749655
    29  H    2.844568   4.297809   1.093498   2.145559   2.749658
    30  H    3.311644   4.150204   2.193417   1.091196   2.145991
    31  H    4.513222   5.533720   2.193417   1.091196   2.145990
    32  H    4.694201   5.759658   2.847146   2.184939   1.091952
    33  H    5.611686   6.829897   2.847141   2.184935   1.091949
    34  H    5.566068   6.460601   3.529367   2.174457   1.091920
    35  H    2.844570   4.297810   2.659511   4.157260   5.062452
    36  H    4.158578   5.619969   2.659506   4.157253   5.062443
    37  H    4.513222   5.533719   4.311692   5.560421   6.853196
    38  H    3.311632   4.150191   4.311687   5.560416   6.853192
    39  H    5.611683   6.829894   5.145417   6.663540   7.593577
    40  H    4.694198   5.759655   5.145422   6.663546   7.593582
    41  H    5.566068   6.460601   5.994804   7.442162   8.566090
                   11         12         13         14         15
    11  C    0.000000
    12  C    1.562271   0.000000
    13  C    2.591667   1.547633   0.000000
    14  H    5.219722   5.566063   6.460603   0.000000
    15  H    5.163009   5.611676   6.829895   1.772371   0.000000
    16  H    4.719507   4.694188   5.759651   1.772368   1.777492
    17  H    2.871758   3.311633   4.150198   2.460265   3.059791
    18  H    3.550382   4.513218   5.533723   2.460268   2.494126
    19  H    2.788023   2.844567   4.297816   3.747880   3.104720
    20  H    3.469664   4.158571   5.619971   3.747886   2.562129
    21  H    2.788024   2.844569   4.297814   6.061718   5.234078
    22  H    3.469669   4.158579   5.619976   6.061720   4.931608
    23  H    3.550379   4.513219   5.533720   7.698654   6.917461
    24  H    2.871761   3.311645   4.150207   7.698657   7.140935
    25  H    5.163016   5.611688   6.829901   8.607122   7.449606
    26  H    4.719516   4.694203   5.759661   8.607120   7.658725
    27  H    5.219720   5.566069   6.460602   9.522807   8.607111
    28  H    2.659511   4.157253   5.062445   4.736829   4.565225
    29  H    2.659515   4.157257   5.062449   6.237843   5.807584
    30  H    4.311690   5.560416   6.853194   6.317500   5.242114
    31  H    4.311687   5.560413   6.853191   4.804124   3.783237
    32  H    5.145428   6.663545   7.593584   7.323727   6.691104
    33  H    5.145422   6.663538   7.593576   6.058897   5.615092
    34  H    5.994802   7.442154   8.566085   6.937578   6.058890
    35  H    1.093502   2.145557   2.749654   6.237840   6.161549
    36  H    1.093502   2.145562   2.749660   4.736821   5.007783
    37  H    2.193413   1.091194   2.145992   4.804122   4.924027
    38  H    2.193413   1.091206   2.146000   6.317504   6.116612
    39  H    2.847140   2.184935   1.091946   6.058891   6.691097
    40  H    2.847147   2.184948   1.091956   7.323726   7.616593
    41  H    3.529369   2.174468   1.091923   6.937583   7.323723
                   16         17         18         19         20
    16  H    0.000000
    17  H    2.494125   0.000000
    18  H    3.059794   1.767472   0.000000
    19  H    2.562128   2.508380   3.057685   0.000000
    20  H    3.104729   3.057692   2.508384   1.729859   0.000000
    21  H    4.931610   4.428525   4.761229   2.383521   2.945094
    22  H    5.234082   4.761233   4.428524   2.945098   2.383517
    23  H    7.140935   5.861155   5.588307   4.761222   4.428517
    24  H    6.917467   5.588312   5.861156   4.428523   4.761224
    25  H    7.658730   7.140946   6.917472   5.234085   4.931612
    26  H    7.449607   6.917475   7.140945   4.931615   5.234081
    27  H    8.607114   7.698655   7.698654   6.061716   6.061714
    28  H    5.007791   3.089698   2.309422   3.785548   3.194879
    29  H    6.161553   4.383292   3.873040   4.295756   3.785549
    30  H    6.116613   5.247977   4.202864   4.383282   3.089687
    31  H    4.924030   4.202870   2.790508   3.873032   2.309417
    32  H    7.616594   6.116621   4.924029   6.161551   5.007790
    33  H    6.691103   5.242119   3.783235   5.807579   4.565223
    34  H    7.323718   6.317500   4.804115   6.237828   4.736816
    35  H    5.807581   3.873039   4.383292   3.785546   4.295759
    36  H    4.565219   2.309417   3.089692   3.194874   3.785550
    37  H    3.783236   2.790515   4.202876   2.309419   3.873039
    38  H    5.242119   4.202874   5.247981   3.089692   4.383284
    39  H    5.615086   3.783235   5.242120   4.565219   5.807582
    40  H    6.691105   4.924033   6.116622   5.007793   6.161556
    41  H    6.058896   4.804125   6.317509   4.736826   6.237841
                   21         22         23         24         25
    21  H    0.000000
    22  H    1.729869   0.000000
    23  H    3.057681   2.508377   0.000000
    24  H    2.508378   3.057686   1.767459   0.000000
    25  H    3.104730   2.562133   2.494123   3.059786   0.000000
    26  H    2.562133   3.104732   3.059793   2.494130   1.777491
    27  H    3.747880   3.747883   2.460262   2.460257   1.772366
    28  H    4.295756   3.785548   3.873029   4.383279   5.807582
    29  H    3.785544   3.194871   2.309409   3.089683   4.565214
    30  H    3.873037   2.309413   2.790514   4.202867   3.783244
    31  H    4.383286   3.089689   4.202866   5.247971   5.242123
    32  H    5.807586   4.565221   3.783240   5.242116   5.615092
    33  H    6.161549   5.007784   4.924025   6.116608   6.691102
    34  H    6.237832   4.736812   4.804116   6.317492   6.058891
    35  H    3.194868   3.785552   3.089690   2.309414   5.007784
    36  H    3.785549   4.295762   4.383284   3.873038   6.161553
    37  H    3.089692   4.383293   5.247976   4.202875   6.116620
    38  H    2.309409   3.873037   4.202863   2.790513   4.924024
    39  H    5.007782   6.161553   6.116611   4.924031   7.616589
    40  H    4.565224   5.807593   5.242120   3.783245   6.691105
    41  H    4.736820   6.237844   6.317499   4.804126   7.323722
                   26         27         28         29         30
    26  H    0.000000
    27  H    1.772370   0.000000
    28  H    6.161552   6.237829   0.000000
    29  H    5.007785   4.736810   1.729862   0.000000
    30  H    4.924035   4.804125   3.057682   2.508377   0.000000
    31  H    6.116619   6.317500   2.508379   3.057684   1.767462
    32  H    6.691107   6.058893   3.104725   2.562132   2.494130
    33  H    7.616592   7.323717   2.562126   3.104724   3.059790
    34  H    7.323720   6.937574   3.747877   3.747877   2.460258
    35  H    4.565221   4.736813   2.945097   2.383524   4.428526
    36  H    5.807590   6.237834   2.383515   2.945096   4.761224
    37  H    5.242125   6.317501   4.428526   4.761231   5.861157
    38  H    3.783236   4.804113   4.761226   4.428520   5.588307
    39  H    6.691104   7.323715   4.931606   5.234079   7.140936
    40  H    5.615098   6.058890   5.234079   4.931611   6.917471
    41  H    6.058897   6.937573   6.061717   6.061717   7.698656
                   31         32         33         34         35
    31  H    0.000000
    32  H    3.059793   0.000000
    33  H    2.494128   1.777490   0.000000
    34  H    2.460260   1.772368   1.772372   0.000000
    35  H    4.761228   4.931617   5.234081   6.061716   0.000000
    36  H    4.428517   5.234079   4.931602   6.061709   1.729865
    37  H    5.588310   7.140945   6.917468   7.698653   3.057684
    38  H    5.861152   6.917468   7.140935   7.698648   2.508374
    39  H    6.917462   7.658724   7.449596   8.607107   3.104721
    40  H    7.140940   7.449606   7.658721   8.607111   2.562126
    41  H    7.698655   8.607117   8.607112   9.522803   3.747876
                   36         37         38         39         40
    36  H    0.000000
    37  H    2.508386   0.000000
    38  H    3.057692   1.767471   0.000000
    39  H    2.562129   2.494125   3.059796   0.000000
    40  H    3.104731   3.059799   2.494138   1.777493   0.000000
    41  H    3.747887   2.460268   2.460271   1.772371   1.772370
                   41
    41  H    0.000000
 This structure is nearly, but not quite of a higher symmetry.
 Consider Symm=Loose if the higher symmetry is desired.
 Stoichiometry    C12H28N(1+)
 Framework group  C1[X(C12H28N)]
 Deg. of freedom   117
 Full point group                 C1      NOp   1
 Largest Abelian subgroup         C1      NOp   1
 Largest concise Abelian subgroup C1      NOp   1
                         Standard orientation:                         
 ---------------------------------------------------------------------
 Center     Atomic      Atomic             Coordinates (Angstroms)
 Number     Number       Type             X           Y           Z
 ---------------------------------------------------------------------
      1          6           0        1.417712   -3.422809   -1.555216
      2          6           0        1.052991   -2.419332   -0.434882
      3          6           0        0.418975   -1.100827   -0.982830
      4          7           0       -0.000007    0.000003    0.000002
      5          6           0       -0.579814    1.148774   -0.835120
      6          6           0       -1.101749    2.433875   -0.116216
      7          6           0       -1.652734    3.492885   -1.101132
      8          6           0       -1.041556   -0.527761    0.994958
      9          6           0       -2.396133   -1.094115    0.461034
     10          6           0       -3.331657   -1.583765    1.592487
     11          6           0        1.202403    0.479806    0.822994
     12          6           0        2.444891    1.079571    0.090058
     13          6           0        3.566681    1.513689    1.063864
     14          1           0        1.855092   -4.322025   -1.116571
     15          1           0        0.526862   -3.709779   -2.117701
     16          1           0        2.144446   -2.983463   -2.241655
     17          1           0        1.966783   -2.197243    0.118632
     18          1           0        0.358318   -2.919465    0.241889
     19          1           0        1.130593   -0.692329   -1.705646
     20          1           0       -0.443644   -1.399180   -1.585015
     21          1           0        0.165134    1.482222   -1.562863
     22          1           0       -1.409110    0.775364   -1.442231
     23          1           0       -1.905264    2.178898    0.576649
     24          1           0       -0.296812    2.901120    0.453395
     25          1           0       -2.490658    3.086694   -1.671433
     26          1           0       -0.873076    3.813011   -1.795397
     27          1           0       -2.002193    4.365885   -0.546108
     28          1           0       -0.594945   -1.317590    1.605236
     29          1           0       -1.295640    0.260609    1.708856
     30          1           0       -2.931503   -0.326327   -0.099850
     31          1           0       -2.215577   -1.938829   -0.205725
     32          1           0       -3.576595   -0.762814    2.269543
     33          1           0       -2.856603   -2.384462    2.163065
     34          1           0       -4.259494   -1.967531    1.163383
     35          1           0        0.873456    1.234561    1.542636
     36          1           0        1.574143   -0.343645    1.439017
     37          1           0        2.869990    0.344665   -0.595439
     38          1           0        2.154057    1.957174   -0.489562
     39          1           0        3.922802    0.659588    1.643550
     40          1           0        3.202819    2.281244    1.750036
     41          1           0        4.406604    1.923678    0.499299
 ---------------------------------------------------------------------
 Rotational constants (GHZ):           0.5721224           0.5721222           0.3613937
 Leave Link  202 at Tue Feb 23 00:11:10 2021, MaxMem=   104857600 cpu:               0.5 elap:               0.0
 (Enter /sw/arch/RedHatEnterpriseServer7/EB_production/2019/software/Gaussian/g16.c01/l301.exe)
 Standard basis: TZVP (5D, 7F)
 Ernie: Thresh=  0.10000D-02 Tol=  0.10000D-05 Strict=F.
 There are   428 symmetry adapted cartesian basis functions of A   symmetry.
 There are   415 symmetry adapted basis functions of A   symmetry.
   415 basis functions,   679 primitive gaussians,   428 cartesian basis functions
    53 alpha electrons       53 beta electrons
       nuclear repulsion energy       905.3263680033 Hartrees.
 IExCor=  404 DFT=T Ex=B Corr=P86 ExCW=0 ScaHFX=  0.000000
 ScaDFX=  1.000000  1.000000  1.000000  1.000000 ScalE2=  1.000000  1.000000
 IRadAn=      5 IRanWt=     -1 IRanGd=            0 ICorTp=0 IEmpDi=131
 NAtoms=   41 NActive=   41 NUniq=   41 SFac= 1.00D+00 NAtFMM=   60 NAOKFM=F Big=F
 Integral buffers will be    131072 words long.
 Raffenetti 2 integral format.
 Two-electron integral symmetry is turned on.
 R6Disp:  Grimme-D3 Dispersion energy=       -0.0484033804 Hartrees.
 Nuclear repulsion after empirical dispersion term =      905.2779646230 Hartrees.
 ------------------------------------------------------------------------------
 Polarizable Continuum Model (PCM)
 =================================
 Model                : PCM.
 Atomic radii         : UFF (Universal Force Field).
 Polarization charges : Total charges.
 Charge compensation  : None.
 Solution method      : On-the-fly selection.
 Cavity type          : Scaled VdW (van der Waals Surface) (Alpha=1.100).
 Cavity algorithm     : GePol (No added spheres)
                        Default sphere list used, NSphG=   41.
                        Lebedev-Laikov grids with approx.  5.0 points / Ang**2.
                        Smoothing algorithm: York/Karplus (Gamma=1.0000).
                        Polarization charges: spherical gaussians, with
                                              point-specific exponents (IZeta= 3).
                        Self-potential: point-specific (ISelfS= 7).
                        Self-field    : sphere-specific E.n sum rule (ISelfD= 2).
 1st derivatives      : Analytical E(r).r(x)/FMM algorithm (CHGder, D1EAlg=3).
                        Cavity 1st derivative terms included.
 Solvent              : Water, Eps=  78.355300 Eps(inf)=   1.777849
 ------------------------------------------------------------------------------
 GePol: Number of generator spheres                  =      41
 GePol: Total number of spheres                      =      41
 GePol: Number of exposed spheres                    =      40 ( 97.56%)
 GePol: Number of points                             =    2526
 GePol: Average weight of points                     =       0.13
 GePol: Minimum weight of points                     =   0.18D-10
 GePol: Maximum weight of points                     =    0.20577
 GePol: Number of points with low weight             =     203
 GePol: Fraction of low-weight points (<1% of avg)   =       8.04%
 GePol: Cavity surface area                          =    330.711 Ang**2
 GePol: Cavity volume                                =    353.610 Ang**3
 Leave Link  301 at Tue Feb 23 00:11:10 2021, MaxMem=   104857600 cpu:               1.8 elap:               0.1
 (Enter /sw/arch/RedHatEnterpriseServer7/EB_production/2019/software/Gaussian/g16.c01/l302.exe)
 NPDir=0 NMtPBC=     1 NCelOv=     1 NCel=       1 NClECP=     1 NCelD=      1
         NCelK=      1 NCelE2=     1 NClLst=     1 CellRange=     0.0.
 One-electron integrals computed using PRISM.
 One-electron integral symmetry used in STVInt
 PrsmSu:  requested number of processors reduced to:  25 ShMem   1 Linda.
 NBasis=   415 RedAO= T EigKep=  1.39D-04  NBF=   415
 NBsUse=   415 1.00D-06 EigRej= -1.00D+00 NBFU=   415
 Precomputing XC quadrature grid using
 IXCGrd= 4 IRadAn=           5 IRanWt=          -1 IRanGd=           0 AccXCQ= 0.00D+00.
 Generated NRdTot=       0 NPtTot=           0 NUsed=           0 NTot=          32
 NSgBfM=   422   422   422   422   422 MxSgAt=    41 MxSgA2=    41.
 Leave Link  302 at Tue Feb 23 00:11:11 2021, MaxMem=   104857600 cpu:              16.6 elap:               0.6
 (Enter /sw/arch/RedHatEnterpriseServer7/EB_production/2019/software/Gaussian/g16.c01/l303.exe)
 DipDrv:  MaxL=1.
 Leave Link  303 at Tue Feb 23 00:11:11 2021, MaxMem=   104857600 cpu:               3.5 elap:               0.2
 (Enter /sw/arch/RedHatEnterpriseServer7/EB_production/2019/software/Gaussian/g16.c01/l401.exe)
 ExpMin= 9.52D-02 ExpMax= 1.97D+04 ExpMxC= 6.73D+02 IAcc=3 IRadAn=         5 AccDes= 0.00D+00
 Harris functional with IExCor=  404 and IRadAn=       5 diagonalized for initial guess.
 HarFok:  IExCor=  404 AccDes= 0.00D+00 IRadAn=         5 IDoV= 1 UseB2=F ITyADJ=14
 ICtDFT=  3500011 ScaDFX=  1.000000  1.000000  1.000000  1.000000
 FoFCou: FMM=F IPFlag=           0 FMFlag=      100000 FMFlg1=           0
         NFxFlg=           0 DoJE=T BraDBF=F KetDBF=T FulRan=T
         wScrn=  0.000000 ICntrl=       500 IOpCl=  0 I1Cent=   200000004 NGrid=           0
         NMat0=    1 NMatS0=      1 NMatT0=    0 NMatD0=    1 NMtDS0=    0 NMtDT0=    0
 Petite list used in FoFCou.
 Harris En= -529.261974191460    
 JPrj=0 DoOrth=F DoCkMO=F.
 Leave Link  401 at Tue Feb 23 00:11:12 2021, MaxMem=   104857600 cpu:              32.4 elap:               1.1
 (Enter /sw/arch/RedHatEnterpriseServer7/EB_production/2019/software/Gaussian/g16.c01/l502.exe)
 Integral symmetry usage will be decided dynamically.
 Closed shell SCF:
 Using DIIS extrapolation, IDIIS=  1040.
 NGot=   104857600 LenX=   104471944 LenY=   104288319
 Requested convergence on RMS density matrix=1.00D-08 within 128 cycles.
 Requested convergence on MAX density matrix=1.00D-06.
 Requested convergence on             energy=1.00D-06.
 No special actions if energy rises.
 Fock matrices will be formed incrementally for  20 cycles.

 Cycle   1  Pass 1  IDiag  1:
 FoFJK:  IHMeth= 1 ICntrl=     500 DoSepK=F KAlg= 0 I1Cent=           0 FoldK=F
 IRaf= 870000000 NMat=       1 IRICut=       1 DoRegI=T DoRafI=F ISym2E= 0 IDoP0=0 IntGTp=1.
 FoFCou: FMM=F IPFlag=           0 FMFlag=      100000 FMFlg1=           0
         NFxFlg=           0 DoJE=T BraDBF=F KetDBF=F FulRan=T
         wScrn=  0.000000 ICntrl=       500 IOpCl=  0 I1Cent=           0 NGrid=           0
         NMat0=    1 NMatS0=      1 NMatT0=    0 NMatD0=    1 NMtDS0=    0 NMtDT0=    0
 Symmetry not used in FoFCou.
 Inv3:  Mode=1 IEnd=    19142028.
 Iteration    1 A*A^-1 deviation from unit magnitude is 3.11D-15 for   1276.
 Iteration    1 A*A^-1 deviation from orthogonality  is 2.15D-15 for   1831   1521.
 Iteration    1 A^-1*A deviation from unit magnitude is 3.11D-15 for    215.
 Iteration    1 A^-1*A deviation from orthogonality  is 2.00D-15 for   2467   2458.
 E= -528.465310823332    
 DIIS: error= 4.36D-02 at cycle   1 NSaved=   1.
 NSaved= 1 IEnMin= 1 EnMin= -528.465310823332     IErMin= 1 ErrMin= 4.36D-02
 ErrMax= 4.36D-02  0.00D+00 EMaxC= 1.00D-01 BMatC= 4.59D-01 BMatP= 4.59D-01
 IDIUse=3 WtCom= 5.64D-01 WtEn= 4.36D-01
 Coeff-Com:  0.100D+01
 Coeff-En:   0.100D+01
 Coeff:      0.100D+01
 Gap=     0.322 Goal=   None    Shift=    0.000
 GapD=    0.322 DampG=1.000 DampE=0.500 DampFc=0.5000 IDamp=-1.
 Damping current iteration by 5.00D-01
 RMSDP=3.41D-03 MaxDP=1.61D-01              OVMax= 2.21D-01

 Cycle   2  Pass 1  IDiag  1:
 RMSU=  1.70D-03    CP:  9.81D-01
 E= -528.566443152755     Delta-E=       -0.101132329423 Rises=F Damp=T
 DIIS: error= 2.13D-02 at cycle   2 NSaved=   2.
 NSaved= 2 IEnMin= 2 EnMin= -528.566443152755     IErMin= 2 ErrMin= 2.13D-02
 ErrMax= 2.13D-02  0.00D+00 EMaxC= 1.00D-01 BMatC= 7.92D-02 BMatP= 4.59D-01
 IDIUse=3 WtCom= 7.87D-01 WtEn= 2.13D-01
 Coeff-Com:  0.255D+00 0.745D+00
 Coeff-En:   0.394D+00 0.606D+00
 Coeff:      0.285D+00 0.715D+00
 Gap=     0.330 Goal=   None    Shift=    0.000
 RMSDP=8.29D-04 MaxDP=4.04D-02 DE=-1.01D-01 OVMax= 1.56D-01

 Cycle   3  Pass 1  IDiag  1:
 RMSU=  6.14D-04    CP:  9.81D-01  6.71D-01
 E= -528.894724367708     Delta-E=       -0.328281214953 Rises=F Damp=F
 DIIS: error= 1.23D-02 at cycle   3 NSaved=   3.
 NSaved= 3 IEnMin= 3 EnMin= -528.894724367708     IErMin= 3 ErrMin= 1.23D-02
 ErrMax= 1.23D-02  0.00D+00 EMaxC= 1.00D-01 BMatC= 3.17D-02 BMatP= 7.92D-02
 IDIUse=3 WtCom= 8.77D-01 WtEn= 1.23D-01
 Coeff-Com:  0.121D+00 0.393D+00 0.485D+00
 Coeff-En:   0.000D+00 0.000D+00 0.100D+01
 Coeff:      0.106D+00 0.345D+00 0.549D+00
 Gap=     0.302 Goal=   None    Shift=    0.000
 RMSDP=5.55D-04 MaxDP=2.22D-02 DE=-3.28D-01 OVMax= 3.89D-02

 Cycle   4  Pass 1  IDiag  1:
 RMSU=  4.25D-04    CP:  9.94D-01  7.55D-01  4.97D-01
 E= -528.913861159973     Delta-E=       -0.019136792266 Rises=F Damp=F
 DIIS: error= 7.04D-03 at cycle   4 NSaved=   4.
 NSaved= 4 IEnMin= 4 EnMin= -528.913861159973     IErMin= 4 ErrMin= 7.04D-03
 ErrMax= 7.04D-03  0.00D+00 EMaxC= 1.00D-01 BMatC= 1.03D-02 BMatP= 3.17D-02
 IDIUse=3 WtCom= 9.30D-01 WtEn= 7.04D-02
 Coeff-Com:  0.265D-01 0.690D-01 0.360D+00 0.544D+00
 Coeff-En:   0.000D+00 0.000D+00 0.287D+00 0.713D+00
 Coeff:      0.247D-01 0.642D-01 0.355D+00 0.556D+00
 Gap=     0.305 Goal=   None    Shift=    0.000
 RMSDP=2.67D-04 MaxDP=1.38D-02 DE=-1.91D-02 OVMax= 1.52D-02

 Cycle   5  Pass 1  IDiag  1:
 RMSU=  8.55D-05    CP:  9.88D-01  7.03D-01  6.39D-01  4.95D-01
 E= -528.923112431689     Delta-E=       -0.009251271715 Rises=F Damp=F
 DIIS: error= 5.92D-04 at cycle   5 NSaved=   5.
 NSaved= 5 IEnMin= 5 EnMin= -528.923112431689     IErMin= 5 ErrMin= 5.92D-04
 ErrMax= 5.92D-04  0.00D+00 EMaxC= 1.00D-01 BMatC= 1.07D-04 BMatP= 1.03D-02
 IDIUse=3 WtCom= 9.94D-01 WtEn= 5.92D-03
 Coeff-Com:  0.453D-02 0.997D-02 0.101D+00 0.207D+00 0.678D+00
 Coeff-En:   0.000D+00 0.000D+00 0.000D+00 0.000D+00 0.100D+01
 Coeff:      0.451D-02 0.991D-02 0.100D+00 0.206D+00 0.680D+00
 Gap=     0.300 Goal=   None    Shift=    0.000
 RMSDP=2.95D-05 MaxDP=1.21D-03 DE=-9.25D-03 OVMax= 1.60D-03

 Cycle   6  Pass 1  IDiag  1:
 RMSU=  1.87D-05    CP:  9.89D-01  7.05D-01  6.44D-01  5.29D-01  8.09D-01
 E= -528.923189845883     Delta-E=       -0.000077414194 Rises=F Damp=F
 DIIS: error= 2.66D-04 at cycle   6 NSaved=   6.
 NSaved= 6 IEnMin= 6 EnMin= -528.923189845883     IErMin= 6 ErrMin= 2.66D-04
 ErrMax= 2.66D-04  0.00D+00 EMaxC= 1.00D-01 BMatC= 2.04D-05 BMatP= 1.07D-04
 IDIUse=3 WtCom= 9.97D-01 WtEn= 2.66D-03
 Coeff-Com:  0.142D-02 0.229D-02 0.434D-01 0.101D+00 0.419D+00 0.433D+00
 Coeff-En:   0.000D+00 0.000D+00 0.000D+00 0.000D+00 0.610D-01 0.939D+00
 Coeff:      0.141D-02 0.229D-02 0.433D-01 0.101D+00 0.418D+00 0.434D+00
 Gap=     0.300 Goal=   None    Shift=    0.000
 RMSDP=1.04D-05 MaxDP=4.46D-04 DE=-7.74D-05 OVMax= 6.44D-04

 Cycle   7  Pass 1  IDiag  1:
 RMSU=  6.42D-06    CP:  9.89D-01  7.08D-01  6.42D-01  5.41D-01  8.09D-01
                    CP:  7.81D-01
 E= -528.923208765607     Delta-E=       -0.000018919724 Rises=F Damp=F
 DIIS: error= 1.94D-05 at cycle   7 NSaved=   7.
 NSaved= 7 IEnMin= 7 EnMin= -528.923208765607     IErMin= 7 ErrMin= 1.94D-05
 ErrMax= 1.94D-05  0.00D+00 EMaxC= 1.00D-01 BMatC= 1.21D-07 BMatP= 2.04D-05
 IDIUse=1 WtCom= 1.00D+00 WtEn= 0.00D+00
 Coeff-Com:  0.205D-03 0.701D-04 0.501D-02 0.131D-01 0.629D-01 0.107D+00
 Coeff-Com:  0.812D+00
 Coeff:      0.205D-03 0.701D-04 0.501D-02 0.131D-01 0.629D-01 0.107D+00
 Coeff:      0.812D+00
 Gap=     0.300 Goal=   None    Shift=    0.000
 RMSDP=1.72D-06 MaxDP=6.09D-05 DE=-1.89D-05 OVMax= 7.20D-05

 Cycle   8  Pass 1  IDiag  1:
 RMSU=  9.82D-07    CP:  9.89D-01  7.08D-01  6.42D-01  5.40D-01  8.16D-01
                    CP:  7.68D-01  8.43D-01
 E= -528.923208848595     Delta-E=       -0.000000082988 Rises=F Damp=F
 DIIS: error= 9.23D-06 at cycle   8 NSaved=   8.
 NSaved= 8 IEnMin= 8 EnMin= -528.923208848595     IErMin= 8 ErrMin= 9.23D-06
 ErrMax= 9.23D-06  0.00D+00 EMaxC= 1.00D-01 BMatC= 2.28D-08 BMatP= 1.21D-07
 IDIUse=1 WtCom= 1.00D+00 WtEn= 0.00D+00
 Coeff-Com:  0.561D-04-0.709D-04 0.850D-03 0.264D-02 0.151D-01 0.344D-01
 Coeff-Com:  0.392D+00 0.555D+00
 Coeff:      0.561D-04-0.709D-04 0.850D-03 0.264D-02 0.151D-01 0.344D-01
 Coeff:      0.392D+00 0.555D+00
 Gap=     0.300 Goal=   None    Shift=    0.000
 RMSDP=4.63D-07 MaxDP=1.29D-05 DE=-8.30D-08 OVMax= 2.96D-05

 Cycle   9  Pass 1  IDiag  1:
 RMSU=  2.15D-07    CP:  9.89D-01  7.08D-01  6.42D-01  5.40D-01  8.15D-01
                    CP:  7.73D-01  8.75D-01  7.28D-01
 E= -528.923208863884     Delta-E=       -0.000000015289 Rises=F Damp=F
 DIIS: error= 2.80D-06 at cycle   9 NSaved=   9.
 NSaved= 9 IEnMin= 9 EnMin= -528.923208863884     IErMin= 9 ErrMin= 2.80D-06
 ErrMax= 2.80D-06  0.00D+00 EMaxC= 1.00D-01 BMatC= 3.12D-09 BMatP= 2.28D-08
 IDIUse=1 WtCom= 1.00D+00 WtEn= 0.00D+00
 Coeff-Com:  0.174D-04-0.412D-04 0.249D-04 0.205D-03 0.214D-02 0.796D-02
 Coeff-Com:  0.134D+00 0.309D+00 0.547D+00
 Coeff:      0.174D-04-0.412D-04 0.249D-04 0.205D-03 0.214D-02 0.796D-02
 Coeff:      0.134D+00 0.309D+00 0.547D+00
 Gap=     0.300 Goal=   None    Shift=    0.000
 RMSDP=1.23D-07 MaxDP=4.81D-06 DE=-1.53D-08 OVMax= 8.94D-06

 Cycle  10  Pass 1  IDiag  1:
 RMSU=  6.97D-08    CP:  9.89D-01  7.08D-01  6.42D-01  5.40D-01  8.15D-01
                    CP:  7.74D-01  8.77D-01  7.27D-01  6.61D-01
 E= -528.923208866825     Delta-E=       -0.000000002941 Rises=F Damp=F
 DIIS: error= 2.78D-07 at cycle  10 NSaved=  10.
 NSaved=10 IEnMin=10 EnMin= -528.923208866825     IErMin=10 ErrMin= 2.78D-07
 ErrMax= 2.78D-07  0.00D+00 EMaxC= 1.00D-01 BMatC= 2.49D-11 BMatP= 3.12D-09
 IDIUse=1 WtCom= 1.00D+00 WtEn= 0.00D+00
 Coeff-Com:  0.319D-05-0.913D-05-0.102D-04-0.157D-04 0.131D-03 0.887D-03
 Coeff-Com:  0.216D-01 0.641D-01 0.157D+00 0.757D+00
 Coeff:      0.319D-05-0.913D-05-0.102D-04-0.157D-04 0.131D-03 0.887D-03
 Coeff:      0.216D-01 0.641D-01 0.157D+00 0.757D+00
 Gap=     0.300 Goal=   None    Shift=    0.000
 RMSDP=2.44D-08 MaxDP=1.01D-06 DE=-2.94D-09 OVMax= 9.49D-07

 Cycle  11  Pass 1  IDiag  1:
 RMSU=  1.34D-08    CP:  9.89D-01  7.08D-01  6.42D-01  5.40D-01  8.15D-01
                    CP:  7.74D-01  8.78D-01  7.34D-01  6.90D-01  7.99D-01
 E= -528.923208866840     Delta-E=       -0.000000000015 Rises=F Damp=F
 DIIS: error= 4.39D-08 at cycle  11 NSaved=  11.
 NSaved=11 IEnMin=11 EnMin= -528.923208866840     IErMin=11 ErrMin= 4.39D-08
 ErrMax= 4.39D-08  0.00D+00 EMaxC= 1.00D-01 BMatC= 4.73D-13 BMatP= 2.49D-11
 IDIUse=1 WtCom= 1.00D+00 WtEn= 0.00D+00
 Coeff-Com:  0.464D-06-0.145D-05-0.139D-05-0.533D-05 0.479D-05 0.506D-04
 Coeff-Com:  0.263D-02 0.990D-02 0.278D-01 0.200D+00 0.760D+00
 Coeff:      0.464D-06-0.145D-05-0.139D-05-0.533D-05 0.479D-05 0.506D-04
 Coeff:      0.263D-02 0.990D-02 0.278D-01 0.200D+00 0.760D+00
 Gap=     0.300 Goal=   None    Shift=    0.000
 RMSDP=4.01D-09 MaxDP=1.95D-07 DE=-1.51D-11 OVMax= 1.44D-07

 Error on total polarization charges =  0.01627
 SCF Done:  E(RB-P86) =  -528.923208867     A.U. after   11 cycles
            NFock= 11  Conv=0.40D-08     -V/T= 2.0061
 KE= 5.256951699315D+02 PE=-3.017309559034D+03 EE= 1.057413215612D+03
 Leave Link  502 at Tue Feb 23 00:11:53 2021, MaxMem=   104857600 cpu:            1285.4 elap:              41.0
 (Enter /sw/arch/RedHatEnterpriseServer7/EB_production/2019/software/Gaussian/g16.c01/l601.exe)
 Copying SCF densities to generalized density rwf, IOpCl= 0 IROHF=0.

 **********************************************************************

            Population analysis using the SCF Density.

 **********************************************************************

 Orbital symmetries:
       Occupied  (A) (A) (A) (A) (A) (A) (A) (A) (A) (A) (A) (A)
                 (A) (A) (A) (A) (A) (A) (A) (A) (A) (A) (A) (A)
                 (A) (A) (A) (A) (A) (A) (A) (A) (A) (A) (A) (A)
                 (A) (A) (A) (A) (A) (A) (A) (A) (A) (A) (A) (A)
                 (A) (A) (A) (A) (A)
       Virtual   (A) (A) (A) (A) (A) (A) (A) (A) (A) (A) (A) (A)
                 (A) (A) (A) (A) (A) (A) (A) (A) (A) (A) (A) (A)
                 (A) (A) (A) (A) (A) (A) (A) (A) (A) (A) (A) (A)
                 (A) (A) (A) (A) (A) (A) (A) (A) (A) (A) (A) (A)
                 (A) (A) (A) (A) (A) (A) (A) (A) (A) (A) (A) (A)
                 (A) (A) (A) (A) (A) (A) (A) (A) (A) (A) (A) (A)
                 (A) (A) (A) (A) (A) (A) (A) (A) (A) (A) (A) (A)
                 (A) (A) (A) (A) (A) (A) (A) (A) (A) (A) (A) (A)
                 (A) (A) (A) (A) (A) (A) (A) (A) (A) (A) (A) (A)
                 (A) (A) (A) (A) (A) (A) (A) (A) (A) (A) (A) (A)
                 (A) (A) (A) (A) (A) (A) (A) (A) (A) (A) (A) (A)
                 (A) (A) (A) (A) (A) (A) (A) (A) (A) (A) (A) (A)
                 (A) (A) (A) (A) (A) (A) (A) (A) (A) (A) (A) (A)
                 (A) (A) (A) (A) (A) (A) (A) (A) (A) (A) (A) (A)
                 (A) (A) (A) (A) (A) (A) (A) (A) (A) (A) (A) (A)
                 (A) (A) (A) (A) (A) (A) (A) (A) (A) (A) (A) (A)
                 (A) (A) (A) (A) (A) (A) (A) (A) (A) (A) (A) (A)
                 (A) (A) (A) (A) (A) (A) (A) (A) (A) (A) (A) (A)
                 (A) (A) (A) (A) (A) (A) (A) (A) (A) (A) (A) (A)
                 (A) (A) (A) (A) (A) (A) (A) (A) (A) (A) (A) (A)
                 (A) (A) (A) (A) (A) (A) (A) (A) (A) (A) (A) (A)
                 (A) (A) (A) (A) (A) (A) (A) (A) (A) (A) (A) (A)
                 (A) (A) (A) (A) (A) (A) (A) (A) (A) (A) (A) (A)
                 (A) (A) (A) (A) (A) (A) (A) (A) (A) (A) (A) (A)
                 (A) (A) (A) (A) (A) (A) (A) (A) (A) (A) (A) (A)
                 (A) (A) (A) (A) (A) (A) (A) (A) (A) (A) (A) (A)
                 (A) (A) (A) (A) (A) (A) (A) (A) (A) (A) (A) (A)
                 (A) (A) (A) (A) (A) (A) (A) (A) (A) (A) (A) (A)
                 (A) (A) (A) (A) (A) (A) (A) (A) (A) (A) (A) (A)
                 (A) (A) (A) (A) (A) (A) (A) (A) (A) (A) (A) (A)
                 (A) (A)
 The electronic state is 1-A.
 Alpha  occ. eigenvalues --  -14.15554  -9.96632  -9.96631  -9.96631  -9.96627
 Alpha  occ. eigenvalues --   -9.92006  -9.92005  -9.92002  -9.92000  -9.89899
 Alpha  occ. eigenvalues --   -9.89898  -9.89898  -9.89895  -0.94233  -0.74361
 Alpha  occ. eigenvalues --   -0.74359  -0.73674  -0.71762  -0.67016  -0.65171
 Alpha  occ. eigenvalues --   -0.65170  -0.60118  -0.57528  -0.54893  -0.54892
 Alpha  occ. eigenvalues --   -0.53655  -0.50099  -0.50099  -0.46283  -0.45857
 Alpha  occ. eigenvalues --   -0.42600  -0.42599  -0.42076  -0.39807  -0.38417
 Alpha  occ. eigenvalues --   -0.38416  -0.37255  -0.36812  -0.36079  -0.36078
 Alpha  occ. eigenvalues --   -0.35787  -0.35666  -0.35497  -0.33605  -0.33605
 Alpha  occ. eigenvalues --   -0.32966  -0.31656  -0.31569  -0.31568  -0.31358
 Alpha  occ. eigenvalues --   -0.31357  -0.31258  -0.30693
 Alpha virt. eigenvalues --   -0.00686   0.00327   0.01759   0.01760   0.02224
 Alpha virt. eigenvalues --    0.03718   0.03762   0.03762   0.04852   0.05712
 Alpha virt. eigenvalues --    0.06075   0.06911   0.06912   0.07699   0.07699
 Alpha virt. eigenvalues --    0.08305   0.09015   0.09530   0.09761   0.09762
 Alpha virt. eigenvalues --    0.09816   0.10280   0.11284   0.11285   0.11915
 Alpha virt. eigenvalues --    0.12198   0.12199   0.12200   0.12201   0.12506
 Alpha virt. eigenvalues --    0.12506   0.12570   0.13556   0.15416   0.15650
 Alpha virt. eigenvalues --    0.15651   0.16223   0.16493   0.17723   0.17723
 Alpha virt. eigenvalues --    0.17816   0.18646   0.21298   0.21299   0.21630
 Alpha virt. eigenvalues --    0.22670   0.23122   0.23123   0.24871   0.26140
 Alpha virt. eigenvalues --    0.26177   0.26412   0.26413   0.27185   0.28537
 Alpha virt. eigenvalues --    0.28861   0.28862   0.31787   0.31788   0.33575
 Alpha virt. eigenvalues --    0.33575   0.33807   0.34346   0.36115   0.36212
 Alpha virt. eigenvalues --    0.37005   0.38361   0.38362   0.38491   0.39411
 Alpha virt. eigenvalues --    0.39411   0.39621   0.39715   0.40021   0.40319
 Alpha virt. eigenvalues --    0.41012   0.41012   0.41480   0.41480   0.41929
 Alpha virt. eigenvalues --    0.42232   0.43507   0.43847   0.43971   0.44474
 Alpha virt. eigenvalues --    0.44475   0.44998   0.44999   0.45301   0.46261
 Alpha virt. eigenvalues --    0.46903   0.46917   0.46918   0.47429   0.48110
 Alpha virt. eigenvalues --    0.49486   0.49487   0.51091   0.51616   0.51617
 Alpha virt. eigenvalues --    0.52613   0.52941   0.52942   0.54760   0.54761
 Alpha virt. eigenvalues --    0.56363   0.56875   0.58118   0.59492   0.59493
 Alpha virt. eigenvalues --    0.59523   0.60766   0.65722   0.66083   0.67185
 Alpha virt. eigenvalues --    0.67186   0.79620   0.79621   0.79656   0.81836
 Alpha virt. eigenvalues --    1.01121   1.01222   1.02672   1.08072   1.08072
 Alpha virt. eigenvalues --    1.09046   1.16138   1.16139   1.16272   1.19086
 Alpha virt. eigenvalues --    1.19538   1.19682   1.19852   1.19852   1.20678
 Alpha virt. eigenvalues --    1.20679   1.20689   1.22181   1.23301   1.24193
 Alpha virt. eigenvalues --    1.24194   1.24541   1.26167   1.26167   1.27705
 Alpha virt. eigenvalues --    1.28214   1.28479   1.28811   1.28811   1.28849
 Alpha virt. eigenvalues --    1.29118   1.32040   1.32041   1.33034   1.33034
 Alpha virt. eigenvalues --    1.33539   1.34391   1.35600   1.35709   1.35709
 Alpha virt. eigenvalues --    1.35859   1.37638   1.38576   1.38576   1.39369
 Alpha virt. eigenvalues --    1.39442   1.41402   1.41551   1.41553   1.46221
 Alpha virt. eigenvalues --    1.46316   1.46760   1.46762   1.46786   1.48022
 Alpha virt. eigenvalues --    1.48023   1.49098   1.52761   1.52987   1.54534
 Alpha virt. eigenvalues --    1.54535   1.54770   1.56530   1.58157   1.58157
 Alpha virt. eigenvalues --    1.59874   1.61724   1.62657   1.62659   1.64972
 Alpha virt. eigenvalues --    1.65619   1.67426   1.67427   1.68166   1.69052
 Alpha virt. eigenvalues --    1.69289   1.69323   1.69323   1.71095   1.71320
 Alpha virt. eigenvalues --    1.71321   1.71728   1.71729   1.72401   1.72446
 Alpha virt. eigenvalues --    1.72447   1.72985   1.73427   1.74372   1.74400
 Alpha virt. eigenvalues --    1.74400   1.75162   1.76741   1.77380   1.77380
 Alpha virt. eigenvalues --    1.77876   1.79274   1.79788   1.79869   1.80045
 Alpha virt. eigenvalues --    1.81648   1.81649   1.83144   1.83145   1.84078
 Alpha virt. eigenvalues --    1.84143   1.84143   1.84521   1.89394   1.91272
 Alpha virt. eigenvalues --    1.91273   1.94113   1.94722   1.96171   1.98057
 Alpha virt. eigenvalues --    2.02472   2.02472   2.03596   2.09597   2.09598
 Alpha virt. eigenvalues --    2.11129   2.11686   2.13464   2.13986   2.13987
 Alpha virt. eigenvalues --    2.14239   2.14504   2.14506   2.15125   2.15125
 Alpha virt. eigenvalues --    2.15913   2.19692   2.21259   2.24108   2.24449
 Alpha virt. eigenvalues --    2.24449   2.28937   2.28938   2.29515   2.30942
 Alpha virt. eigenvalues --    2.31936   2.34451   2.34570   2.34571   2.36559
 Alpha virt. eigenvalues --    2.38554   2.38556   2.39991   2.40213   2.43061
 Alpha virt. eigenvalues --    2.43062   2.45074   2.45286   2.45287   2.46224
 Alpha virt. eigenvalues --    2.47862   2.51091   2.51383   2.51653   2.51654
 Alpha virt. eigenvalues --    2.53161   2.53162   2.53236   2.55053   2.55597
 Alpha virt. eigenvalues --    2.56561   2.56881   2.57249   2.57250   2.57885
 Alpha virt. eigenvalues --    2.58616   2.59204   2.59308   2.59309   2.60624
 Alpha virt. eigenvalues --    2.61463   2.61464   2.66208   2.68755   2.68756
 Alpha virt. eigenvalues --    2.70704   2.71337   2.75019   2.77560   2.77561
 Alpha virt. eigenvalues --    2.78281   2.80971   2.83496   2.83496   2.86491
 Alpha virt. eigenvalues --    2.87209   2.94430   2.94431   2.97044   3.03803
 Alpha virt. eigenvalues --    3.03804   3.07501   3.09875   3.10723   3.13684
 Alpha virt. eigenvalues --    3.15635   3.15636   3.21798   3.22876   3.24353
 Alpha virt. eigenvalues --    3.24354   3.24676   3.26613   3.26613   3.29530
 Alpha virt. eigenvalues --    3.29797   3.30049   3.30537   3.31588   3.31588
 Alpha virt. eigenvalues --    3.32294   3.32959   3.32960   3.33110   3.33723
 Alpha virt. eigenvalues --    3.34029   3.34029   3.34493   3.40979   3.40980
 Alpha virt. eigenvalues --    3.41008   3.60461   3.60462   3.61794  21.74493
 Alpha virt. eigenvalues --   21.75418  21.75566  21.75567  21.80253  21.80254
 Alpha virt. eigenvalues --   21.80850  21.81168  21.88734  21.88865  21.88866
 Alpha virt. eigenvalues --   21.91658  31.79627
          Condensed to atoms (all electrons):
               1          2          3          4          5          6
     1  C    5.016281   0.263954  -0.031748   0.007053  -0.001397   0.000097
     2  C    0.263954   5.183271   0.120492  -0.007424   0.023164  -0.001532
     3  C   -0.031748   0.120492   5.656615   0.160824  -0.214444   0.023187
     4  N    0.007053  -0.007424   0.160824   6.675541   0.160721  -0.007410
     5  C   -0.001397   0.023164  -0.214444   0.160721   5.657381   0.120251
     6  C    0.000097  -0.001532   0.023187  -0.007410   0.120251   5.183659
     7  C   -0.000003   0.000097  -0.001394   0.007061  -0.031830   0.264043
     8  C   -0.002268   0.011456  -0.074981   0.160722  -0.075079   0.011490
     9  C    0.001141  -0.012087   0.011513  -0.007454   0.011474  -0.012089
    10  C   -0.000053   0.001139  -0.002263   0.007061  -0.002269   0.001139
    11  C   -0.002261   0.011388  -0.074873   0.160832  -0.075077   0.011473
    12  C    0.001139  -0.012054   0.011393  -0.007410   0.011504  -0.012086
    13  C   -0.000053   0.001141  -0.002265   0.007056  -0.002271   0.001142
    14  H    0.404390  -0.040931   0.011495  -0.000330   0.000031  -0.000001
    15  H    0.410943  -0.039815  -0.006998  -0.000011  -0.000044  -0.000000
    16  H    0.410921  -0.039827  -0.006982  -0.000011  -0.000044  -0.000000
    17  H   -0.028959   0.413073  -0.042987  -0.007311  -0.000780  -0.000007
    18  H   -0.028978   0.413038  -0.042920  -0.007323  -0.000779  -0.000007
    19  H    0.000369  -0.032534   0.405286  -0.020341  -0.003873   0.000239
    20  H    0.000389  -0.032582   0.405294  -0.020369  -0.003898   0.000237
    21  H   -0.000025   0.000239  -0.003872  -0.020381   0.405275  -0.032537
    22  H   -0.000024   0.000238  -0.003873  -0.020377   0.405291  -0.032558
    23  H   -0.000000  -0.000007  -0.000779  -0.007332  -0.042973   0.413000
    24  H   -0.000000  -0.000007  -0.000779  -0.007321  -0.042968   0.413062
    25  H    0.000000  -0.000000  -0.000044  -0.000012  -0.006981  -0.039827
    26  H    0.000000  -0.000000  -0.000044  -0.000012  -0.007014  -0.039756
    27  H    0.000000  -0.000001   0.000031  -0.000330   0.011498  -0.040913
    28  H    0.000029   0.001206  -0.021668  -0.020376   0.012836   0.000017
    29  H    0.000004   0.000016   0.012833  -0.020381  -0.021718   0.001207
    30  H   -0.000057   0.000796  -0.009873  -0.007330   0.023236  -0.005322
    31  H    0.000161  -0.005318   0.023218  -0.007323  -0.009867   0.000796
    32  H    0.000002  -0.000078   0.000481  -0.000012  -0.001079   0.000499
    33  H   -0.000024   0.000498  -0.001079  -0.000012   0.000481  -0.000078
    34  H   -0.000001  -0.000033   0.000067  -0.000330   0.000067  -0.000033
    35  H    0.000004   0.000015   0.012836  -0.020388  -0.021734   0.001231
    36  H    0.000028   0.001215  -0.021684  -0.020371   0.012846   0.000015
    37  H    0.000159  -0.005318   0.023208  -0.007312  -0.009866   0.000795
    38  H   -0.000057   0.000795  -0.009864  -0.007334   0.023256  -0.005332
    39  H   -0.000024   0.000498  -0.001079  -0.000012   0.000481  -0.000079
    40  H    0.000002  -0.000078   0.000480  -0.000011  -0.001079   0.000498
    41  H   -0.000001  -0.000033   0.000067  -0.000330   0.000067  -0.000033
               7          8          9         10         11         12
     1  C   -0.000003  -0.002268   0.001141  -0.000053  -0.002261   0.001139
     2  C    0.000097   0.011456  -0.012087   0.001139   0.011388  -0.012054
     3  C   -0.001394  -0.074981   0.011513  -0.002263  -0.074873   0.011393
     4  N    0.007061   0.160722  -0.007454   0.007061   0.160832  -0.007410
     5  C   -0.031830  -0.075079   0.011474  -0.002269  -0.075077   0.011504
     6  C    0.264043   0.011490  -0.012089   0.001139   0.011473  -0.012086
     7  C    5.016019  -0.002270   0.001139  -0.000053  -0.002267   0.001140
     8  C   -0.002270   5.657524   0.120239  -0.031822  -0.214413   0.023155
     9  C    0.001139   0.120239   5.183565   0.263991   0.023173  -0.001529
    10  C   -0.000053  -0.031822   0.263991   5.016225  -0.001393   0.000097
    11  C   -0.002267  -0.214413   0.023173  -0.001393   5.656450   0.120600
    12  C    0.001140   0.023155  -0.001529   0.000097   0.120600   5.183095
    13  C   -0.000053  -0.001397   0.000097  -0.000003  -0.031789   0.264040
    14  H    0.000000   0.000067  -0.000033  -0.000001   0.000067  -0.000033
[...]
    18  H   -0.000084  -0.002229  -0.006702   0.006717  -0.026114   0.510633
    19  H    0.000157  -0.000203  -0.000242   0.003026  -0.002480   0.003499
    20  H    0.000007  -0.000200   0.003037  -0.000246   0.003495  -0.002451
    21  H    0.000161   0.000000   0.000019  -0.000021   0.000089  -0.000027
    22  H    0.000007   0.000000  -0.000021   0.000019  -0.000027   0.000089
    23  H   -0.000083   0.000000   0.000000  -0.000000   0.000007  -0.000015
    24  H    0.000458   0.000000  -0.000000   0.000000  -0.000015   0.000007
    25  H    0.000005  -0.000000  -0.000000   0.000000  -0.000000   0.000000
    26  H   -0.000047  -0.000000   0.000000  -0.000000   0.000000  -0.000000
    27  H   -0.000000  -0.000000  -0.000000  -0.000000   0.000000   0.000000
    28  H   -0.000051  -0.000001   0.000152  -0.000086   0.001745  -0.006529
    29  H   -0.000051   0.000001  -0.000010   0.000005  -0.000170   0.000729
    30  H   -0.000001   0.000000   0.000016  -0.000002   0.000014  -0.000113
    31  H   -0.000001   0.000014  -0.000322   0.000064  -0.000112   0.003448
    32  H    0.000000  -0.000000  -0.000000   0.000000  -0.000002   0.000063
    33  H    0.000000  -0.000001   0.000007  -0.000000   0.000016  -0.000322
    34  H    0.000000  -0.000000  -0.000001  -0.000000   0.000000   0.000014
    35  H    0.001320   0.000001   0.000005  -0.000010   0.000725  -0.000171
    36  H    0.001325  -0.000001  -0.000087   0.000151  -0.006538   0.001761
    37  H   -0.024279   0.000014   0.000063  -0.000321   0.003444  -0.000113
    38  H   -0.024366   0.000000  -0.000002   0.000016  -0.000112   0.000014
    39  H    0.412165  -0.000001  -0.000000   0.000007  -0.000322   0.000016
    40  H    0.412157  -0.000000   0.000000  -0.000000   0.000064  -0.000002
    41  H    0.399445  -0.000000  -0.000000  -0.000001   0.000014   0.000000
              19         20         21         22         23         24
     1  C    0.001329   0.001320  -0.000051  -0.000051  -0.000001  -0.000001
     2  C   -0.032868  -0.032921   0.000487   0.000497  -0.000004  -0.000004
     3  C    0.407680   0.407853  -0.004621  -0.004548  -0.001092  -0.001078
     4  N   -0.022849  -0.022826  -0.022811  -0.022846  -0.007795  -0.007750
     5  C   -0.004549  -0.004621   0.407856   0.407675  -0.042194  -0.042412
     6  C    0.000496   0.000487  -0.032919  -0.032878   0.413827   0.413987
     7  C   -0.000051  -0.000051   0.001315   0.001318  -0.024399  -0.024321
     8  C    0.013532  -0.023387   0.013499  -0.023385   0.026736  -0.012782
     9  C    0.000096   0.000280   0.000106   0.000270  -0.006636   0.001079
    10  C    0.000007   0.000159   0.000007   0.000155   0.000458  -0.000083
    11  C   -0.023359   0.013497  -0.023423   0.013540  -0.012701   0.026779
    12  C    0.000264   0.000105   0.000278   0.000097   0.001074  -0.006649
    13  C    0.000157   0.000007   0.000161   0.000007  -0.000083   0.000458
    14  H   -0.000203  -0.000200   0.000000   0.000000   0.000000   0.000000
    15  H   -0.000242   0.003037   0.000019  -0.000021   0.000000  -0.000000
    16  H    0.003026  -0.000246  -0.000021   0.000019  -0.000000   0.000000
    17  H   -0.002480   0.003495   0.000089  -0.000027   0.000007  -0.000015
    18  H    0.003499  -0.002451  -0.000027   0.000089  -0.000015   0.000007
    19  H    0.449869  -0.016049   0.003523  -0.000817  -0.000026   0.000088
    20  H   -0.016049   0.449665  -0.000796   0.003528   0.000089  -0.000027
    21  H    0.003523  -0.000796   0.449705  -0.016056   0.003500  -0.002460
    22  H   -0.000817   0.003528  -0.016056   0.449924  -0.002489   0.003505
    23  H   -0.000026   0.000089   0.003500  -0.002489   0.510800  -0.026115
    24  H    0.000088  -0.000027  -0.002460   0.003505  -0.026115   0.510682
    25  H    0.000019  -0.000021  -0.000250   0.003034  -0.006702   0.006719
    26  H   -0.000021   0.000019   0.003046  -0.000245   0.006725  -0.006703
    27  H    0.000000   0.000000  -0.000200  -0.000202  -0.002237  -0.002227
    28  H   -0.000339   0.001862  -0.000078  -0.000340   0.000722  -0.000171
    29  H   -0.000077  -0.000339  -0.000339   0.001862  -0.006523   0.001760
    30  H   -0.000171   0.001761   0.000725  -0.006510   0.003442  -0.000113
    31  H    0.000723  -0.006527  -0.000169   0.001743  -0.000111   0.000014
    32  H    0.000005  -0.000086  -0.000010   0.000151  -0.000321   0.000016
    33  H   -0.000010   0.000151   0.000005  -0.000086   0.000063  -0.000002
    34  H    0.000001  -0.000001   0.000001  -0.000001   0.000014   0.000000
    35  H   -0.000339  -0.000078   0.001862  -0.000340   0.001743  -0.006501
    36  H    0.001861  -0.000339  -0.000339  -0.000078  -0.000169   0.000724
    37  H   -0.006505   0.000726   0.001761  -0.000171   0.000014  -0.000113
    38  H    0.001743  -0.000169  -0.006542   0.000725  -0.000112   0.003445
    39  H    0.000151  -0.000010  -0.000087   0.000005  -0.000002   0.000063
    40  H   -0.000086   0.000005   0.000151  -0.000010   0.000016  -0.000321
    41  H   -0.000001   0.000001  -0.000001   0.000001   0.000000   0.000014
              25         26         27         28         29         30
     1  C    0.000000   0.000000   0.000000   0.000158   0.000007  -0.000083
     2  C   -0.000001  -0.000001  -0.000002   0.000255   0.000107   0.001081
     3  C   -0.000037  -0.000037   0.000039  -0.023401   0.013498  -0.012793
     4  N   -0.000009  -0.000015  -0.000442  -0.022845  -0.022812  -0.007748
     5  C   -0.006984  -0.006958   0.013327   0.013538  -0.023392   0.026793
     6  C   -0.040112  -0.040142  -0.042168   0.000096   0.000288  -0.006653
     7  C    0.412131   0.412147   0.399460   0.000007   0.000159   0.000459
     8  C   -0.001470   0.000628   0.000086   0.407683   0.407844  -0.042442
     9  C    0.000684  -0.000105  -0.000041  -0.032903  -0.032894   0.413990
    10  C   -0.000046   0.000005  -0.000000   0.001325   0.001313  -0.024295
    11  C    0.000628  -0.001473   0.000086  -0.004527  -0.004638  -0.001076
    12  C   -0.000105   0.000690  -0.000042   0.000495   0.000488  -0.000004
    13  C    0.000005  -0.000047  -0.000000  -0.000051  -0.000051  -0.000001
    14  H   -0.000000  -0.000000  -0.000000  -0.000001   0.000001   0.000000
    15  H   -0.000000   0.000000  -0.000000   0.000152  -0.000010   0.000016
    16  H    0.000000  -0.000000  -0.000000  -0.000086   0.000005  -0.000002
    17  H   -0.000000   0.000000   0.000000   0.001745  -0.000170   0.000014
    18  H    0.000000  -0.000000   0.000000  -0.006529   0.000729  -0.000113
    19  H    0.000019  -0.000021   0.000000  -0.000339  -0.000077  -0.000171
    20  H   -0.000021   0.000019   0.000000   0.001862  -0.000339   0.001761
    21  H   -0.000250   0.003046  -0.000200  -0.000078  -0.000339   0.000725
    22  H    0.003034  -0.000245  -0.000202  -0.000340   0.001862  -0.006510
    23  H   -0.006702   0.006725  -0.002237   0.000722  -0.006523   0.003442
    24  H    0.006719  -0.006703  -0.002227  -0.000171   0.001760  -0.000113
    25  H    0.541910  -0.032216  -0.023207  -0.000010   0.000151  -0.000321
    26  H   -0.032216   0.541822  -0.023198   0.000005  -0.000086   0.000063
    27  H   -0.023207  -0.023198   0.520301   0.000001  -0.000001   0.000014
    28  H   -0.000010   0.000005   0.000001   0.449917  -0.016053   0.003504
    29  H    0.000151  -0.000086  -0.000001  -0.016053   0.449667  -0.002458
    30  H   -0.000321   0.000063   0.000014   0.003504  -0.002458   0.510665
    31  H    0.000016  -0.000002   0.000000  -0.002487   0.003498  -0.026115
    32  H    0.000007  -0.000000  -0.000001  -0.000246   0.003041  -0.006704
    33  H   -0.000000   0.000000  -0.000000   0.003034  -0.000248   0.006718
    34  H   -0.000001  -0.000000  -0.000000  -0.000202  -0.000199  -0.002228
    35  H   -0.000086   0.000151  -0.000001  -0.000819   0.003527   0.000089
    36  H    0.000005  -0.000010   0.000001   0.003524  -0.000794  -0.000027
    37  H   -0.000002   0.000016   0.000000   0.000089  -0.000027   0.000007
    38  H    0.000064  -0.000322   0.000014  -0.000027   0.000089  -0.000015
    39  H    0.000000  -0.000000  -0.000000  -0.000021   0.000019  -0.000000
    40  H   -0.000000   0.000007  -0.000001   0.000019  -0.000021   0.000000
    41  H   -0.000000  -0.000001  -0.000000   0.000000   0.000000   0.000000
              31         32         33         34         35         36
     1  C    0.000459   0.000005  -0.000047  -0.000000   0.000007   0.000161
     2  C   -0.006644  -0.000106   0.000686  -0.000041   0.000096   0.000279
     3  C    0.026756   0.000629  -0.001472   0.000087   0.013539  -0.023398
     4  N   -0.007801  -0.000015  -0.000009  -0.000442  -0.022860  -0.022815
     5  C   -0.012709  -0.001473   0.000628   0.000086  -0.023364   0.013492
     6  C    0.001075   0.000689  -0.000105  -0.000042   0.000266   0.000105
     7  C   -0.000083  -0.000047   0.000005  -0.000000   0.000155   0.000007
     8  C   -0.042179  -0.006953  -0.006988   0.013328  -0.004536  -0.004637
     9  C    0.413825  -0.040140  -0.040125  -0.042162   0.000498   0.000486
    10  C   -0.024393   0.412149   0.412150   0.399452  -0.000051  -0.000051
    11  C   -0.001095  -0.000038  -0.000037   0.000039   0.407684   0.407853
    12  C   -0.000004  -0.000001  -0.000001  -0.000002  -0.032897  -0.032897
    13  C   -0.000001   0.000000   0.000000   0.000000   0.001320   0.001325
    14  H    0.000014  -0.000000  -0.000001  -0.000000   0.000001  -0.000001
    15  H   -0.000322  -0.000000   0.000007  -0.000001   0.000005  -0.000087
    16  H    0.000064   0.000000  -0.000000  -0.000000  -0.000010   0.000151
    17  H   -0.000112  -0.000002   0.000016   0.000000   0.000725  -0.006538
    18  H    0.003448   0.000063  -0.000322   0.000014  -0.000171   0.001761
    19  H    0.000723   0.000005  -0.000010   0.000001  -0.000339   0.001861
    20  H   -0.006527  -0.000086   0.000151  -0.000001  -0.000078  -0.000339
    21  H   -0.000169  -0.000010   0.000005   0.000001   0.001862  -0.000339
    22  H    0.001743   0.000151  -0.000086  -0.000001  -0.000340  -0.000078
    23  H   -0.000111  -0.000321   0.000063   0.000014   0.001743  -0.000169
    24  H    0.000014   0.000016  -0.000002   0.000000  -0.006501   0.000724
    25  H    0.000016   0.000007  -0.000000  -0.000001  -0.000086   0.000005
    26  H   -0.000002  -0.000000   0.000000  -0.000000   0.000151  -0.000010
    27  H    0.000000  -0.000001  -0.000000  -0.000000  -0.000001   0.000001
    28  H   -0.002487  -0.000246   0.003034  -0.000202  -0.000819   0.003524
    29  H    0.003498   0.003041  -0.000248  -0.000199   0.003527  -0.000794
    30  H   -0.026115  -0.006704   0.006718  -0.002228   0.000089  -0.000027
    31  H    0.510777   0.006724  -0.006701  -0.002237  -0.000027   0.000089
    32  H    0.006724   0.541819  -0.032217  -0.023196  -0.000021   0.000019
    33  H   -0.006701  -0.032217   0.541904  -0.023208   0.000019  -0.000021
    34  H   -0.002237  -0.023196  -0.023208   0.520306   0.000000   0.000000
    35  H   -0.000027  -0.000021   0.000019   0.000000   0.449900  -0.016049
    36  H    0.000089   0.000019  -0.000021   0.000000  -0.016049   0.449656
    37  H   -0.000015  -0.000000   0.000000   0.000000   0.003502  -0.002454
    38  H    0.000007   0.000000  -0.000000   0.000000  -0.002481   0.003495
    39  H    0.000000   0.000000  -0.000000  -0.000000  -0.000243   0.003038
    40  H   -0.000000  -0.000000   0.000000  -0.000000   0.003029  -0.000248
    41  H    0.000000  -0.000000  -0.000000  -0.000000  -0.000202  -0.000200
              37         38         39         40         41
     1  C    0.000460  -0.000083  -0.000047   0.000005  -0.000000
     2  C   -0.006650   0.001076   0.000690  -0.000105  -0.000042
     3  C    0.026783  -0.012724  -0.001475   0.000628   0.000086
     4  N   -0.007746  -0.007803  -0.000015  -0.000009  -0.000442
     5  C   -0.012805   0.026787   0.000629  -0.001473   0.000087
     6  C    0.001082  -0.006655  -0.000105   0.000686  -0.000041
     7  C   -0.000084   0.000460   0.000005  -0.000047  -0.000000
     8  C   -0.001078  -0.001095  -0.000038  -0.000037   0.000039
     9  C   -0.000004  -0.000004  -0.000001  -0.000001  -0.000002
    10  C   -0.000001  -0.000001   0.000000   0.000000   0.000000
    11  C   -0.042421  -0.042229  -0.006959  -0.006981   0.013329
    12  C    0.413979   0.413843  -0.040146  -0.040131  -0.042159
    13  C   -0.024279  -0.024366   0.412165   0.412157   0.399445
    14  H    0.000014   0.000000  -0.000001  -0.000000  -0.000000
    15  H    0.000063  -0.000002  -0.000000   0.000000  -0.000000
    16  H   -0.000321   0.000016   0.000007  -0.000000  -0.000001
    17  H    0.003444  -0.000112  -0.000322   0.000064   0.000014
    18  H   -0.000113   0.000014   0.000016  -0.000002   0.000000
    19  H   -0.006505   0.001743   0.000151  -0.000086  -0.000001
    20  H    0.000726  -0.000169  -0.000010   0.000005   0.000001
    21  H    0.001761  -0.006542  -0.000087   0.000151  -0.000001
    22  H   -0.000171   0.000725   0.000005  -0.000010   0.000001
    23  H    0.000014  -0.000112  -0.000002   0.000016   0.000000
    24  H   -0.000113   0.003445   0.000063  -0.000321   0.000014
    25  H   -0.000002   0.000064   0.000000  -0.000000  -0.000000
    26  H    0.000016  -0.000322  -0.000000   0.000007  -0.000001
    27  H    0.000000   0.000014  -0.000000  -0.000001  -0.000000
    28  H    0.000089  -0.000027  -0.000021   0.000019   0.000000
    29  H   -0.000027   0.000089   0.000019  -0.000021   0.000000
    30  H    0.000007  -0.000015  -0.000000   0.000000   0.000000
    31  H   -0.000015   0.000007   0.000000  -0.000000   0.000000
    32  H   -0.000000   0.000000   0.000000  -0.000000  -0.000000
    33  H    0.000000  -0.000000  -0.000000   0.000000  -0.000000
    34  H    0.000000   0.000000  -0.000000  -0.000000  -0.000000
    35  H    0.003502  -0.002481  -0.000243   0.003029  -0.000202
    36  H   -0.002454   0.003495   0.003038  -0.000248  -0.000200
    37  H    0.510637  -0.026116  -0.006703   0.006718  -0.002228
    38  H   -0.026116   0.510770   0.006723  -0.006700  -0.002239
    39  H   -0.006703   0.006723   0.541812  -0.032218  -0.023197
    40  H    0.006718  -0.006700  -0.032218   0.541907  -0.023208
    41  H   -0.002228  -0.002239  -0.023197  -0.023208   0.520321
 Mulliken charges:
               1
     1  C   -0.452708
     2  C   -0.196599
     3  C   -0.303488
     4  N   -0.149543
     5  C   -0.303745
     6  C   -0.196461
     7  C   -0.452635
     8  C   -0.303744
     9  C   -0.196475
    10  C   -0.452652
    11  C   -0.303593
    12  C   -0.196557
    13  C   -0.452691
    14  H    0.160622
    15  H    0.146264
    16  H    0.146217
    17  H    0.170530
    18  H    0.170551
    19  H    0.222974
    20  H    0.223097
    21  H    0.223104
    22  H    0.222956
    23  H    0.170497
    24  H    0.170507
    25  H    0.146210
    26  H    0.146261
    27  H    0.160638
    28  H    0.223005
    29  H    0.223082
    30  H    0.170532
    31  H    0.170502
    32  H    0.146260
    33  H    0.146214
    34  H    0.160634
    35  H    0.222957
    36  H    0.223115
    37  H    0.170541
    38  H    0.170524
    39  H    0.146266
    40  H    0.146209
    41  H    0.160624
 Sum of Mulliken charges =   1.00000
 Mulliken charges with hydrogens summed into heavy atoms:
               1
     1  C    0.000395
     2  C    0.144483
     3  C    0.142583
     4  N   -0.149543
     5  C    0.142314
     6  C    0.144543
     7  C    0.000473
     8  C    0.142342
     9  C    0.144558
    10  C    0.000456
    11  C    0.142479
    12  C    0.144508
    13  C    0.000408
 Electronic spatial extent (au):  <R**2>=           3450.9156
 Charge=              1.0000 electrons
 Dipole moment (field-independent basis, Debye):
    X=              0.0000    Y=             -0.0001    Z=             -0.0001  Tot=              0.0001
 Quadrupole moment (field-independent basis, Debye-Ang):
   XX=            -73.3195   YY=            -73.3195   ZZ=            -79.3322
   XY=              0.0002   XZ=             -0.0015   YZ=              0.0002
 Traceless Quadrupole moment (field-independent basis, Debye-Ang):
   XX=              2.0042   YY=              2.0043   ZZ=             -4.0085
   XY=              0.0002   XZ=             -0.0015   YZ=              0.0002
 Octapole moment (field-independent basis, Debye-Ang**2):
  XXX=              0.0026  YYY=              0.0103  ZZZ=             -0.0004  XYY=              0.0044
  XXY=              0.0117  XXZ=             -0.0339  XZZ=             -0.0014  YZZ=             -0.0020
  YYZ=              0.0328  XYZ=             -0.9017
 Hexadecapole moment (field-independent basis, Debye-Ang**3):
 XXXX=          -1992.1006 YYYY=          -1991.6746 ZZZZ=           -637.2703 XXXY=              1.0053
 XXXZ=             -0.0201 YYYX=             -1.0024 YYYZ=             -0.0001 ZZZX=              0.0152
 ZZZY=              0.0065 XXYY=           -637.7260 XXZZ=           -439.3328 YYZZ=           -439.2534
 XXYZ=             -0.0028 YYXZ=             -0.0148 ZZXY=              0.0009
 N-N= 9.211005708129D+02 E-N=-3.048514035903D+03  KE= 5.258158693350D+02
 Unable to Open any file for archive entry.
 1\1\GINC-TCN1745\SP\RBP86\TZVP\C12H28N1(1+)\ELENAA\23-Feb-2021\0\\# BP
 86/TZVP SCRF=COSMORS geom=CHECKPOINT guess=CHECKPOINT\\COSMO-file for 
 #OSBSFAARYOCBHB-UHFFFAOYSA-N\\1,1\C,0,2.8898758288,2.1346909151,1.9983
 604393\C,0,1.778223617,1.7486914528,1.0107970604\C,0,0.5830274654,1.19
 86748142,1.7827475153\N,0,-0.6218016288,0.7653288656,0.9425113006\C,0,
 -1.6764174829,0.2555428989,1.9293060023\C,0,-2.9859346724,-0.236493275
 9,1.3208283784\C,0,-3.9234643974,-0.7102351831,2.4418364114\C,0,-1.163
 4660923,1.9345126231,0.1146008699\C,0,-1.6221844581,3.1595425468,0.899
 4402341\C,0,-2.1339225946,4.2292423245,-0.077235875\C,0,-0.2303727873,
 -0.3273483874,-0.0566376639\C,0,0.3413062894,-1.6100602212,0.539045128
 8\C,0,0.6796174176,-2.592006086,-0.5929413493\H,0,3.7597635812,2.53279
 83779,1.4580665067\H,0,2.5451364699,2.9066382183,2.7028351915\H,0,3.22
 24612477,1.263163036,2.5824054684\H,0,2.1634068432,0.9985352812,0.3038
 970649\H,0,1.4878213168,2.6331007231,0.4245426913\H,0,0.8742932165,0.3
 177058693,2.3693090069\H,0,0.2041947625,1.9465264458,2.4910395523\H,0,
 -1.1921022129,-0.546028939,2.5015416822\H,0,-1.861591195,1.0828978632,
 2.6265784851\H,0,-3.4764808618,0.5670769219,0.7512272909\H,0,-2.801938
 2046,-1.0674151067,0.623780353\H,0,-4.1496112651,0.1077065247,3.142629
 4297\H,0,-3.4734785322,-1.5356301394,3.0139068605\H,0,-4.8729592607,-1
 .0678853854,2.020336998\H,0,-0.3633358789,2.2030383655,-0.5873347234\H
 ,0,-1.9903578311,1.5259439452,-0.4802114987\H,0,-2.4258976631,2.892082
 3923,1.6013640328\H,0,-0.7933760492,3.5745491939,1.4924061386\H,0,-2.9
 844189585,3.8548227528,-0.6667188746\H,0,-1.3430245148,4.5388601516,-0
 .7771641057\H,0,-2.4681609747,5.1199720534,0.4723082036\H,0,-1.1359269
 338,-0.5420805116,-0.6387217827\H,0,0.4914569213,0.1346230116,-0.74225
 17108\H,0,1.250460561,-1.396417434,1.1204157848\H,0,-0.3828875542,-2.0
 779891592,1.2227357811\H,0,1.4254737694,-2.1646345588,-1.280027189\H,0
 ,-0.2168237976,-2.8478106735,-1.1779569223\H,0,1.0925064941,-3.5229425
 073,-0.1806381672\\Version=ES64L-G16RevC.01\State=1-A\HF=-528.8979448\
 RMSD=4.403e-09\Dipole=0.0000321,-0.0000268,0.0000391\Quadrupole=1.4599
 921,1.4824414,-2.9424335,0.0152035,-0.365948,0.1831983\PG=C01 [X(C12H2
 8N1)]\\@
 The archive entry for this job was punched.


 IF OTHER PEOPLE ARE GOING TO TALK, CONVERSATION IS SIMPLY IMPOSSIBLE.

                                               -- WHISTLER'S PRINCIPLE
 Job cpu time:       0 days  0 hours 17 minutes 45.1 seconds.
 Elapsed time:       0 days  0 hours  0 minutes 34.4 seconds.
 File lengths (MBytes):  RWF=    140 Int=      0 D2E=      0 Chk=     18 Scr=      1
 Normal termination of Gaussian 16 at Tue Feb 23 00:27:44 2021.
