 Entering Gaussian System, Link 0=g16
 Input=PHWBOXQYWZNQIN-UHFFFAOYSA-N.gjf
 Output=PHWBOXQYWZNQIN-UHFFFAOYSA-N.log
 Initial command:
 /sw/arch/RedHatEnterpriseServer7/EB_production/2019/software/Gaussian/g16.c01/l1.exe "/scratch-local/elenaa.9715257/Gau-10915.inp" -scrdir="/scratch-local/elenaa.9715257/"
 Entering Link 1 = /sw/arch/RedHatEnterpriseServer7/EB_production/2019/software/Gaussian/g16.c01/l1.exe PID=     10916.
  
 Copyright (c) 1988-2019, Gaussian, Inc.  All Rights Reserved.
  
 This is part of the Gaussian(R) 16 program.  It is based on
 the Gaussian(R) 09 system (copyright 2009, Gaussian, Inc.),
 the Gaussian(R) 03 system (copyright 2003, Gaussian, Inc.),
 the Gaussian(R) 98 system (copyright 1998, Gaussian, Inc.),
 the Gaussian(R) 94 system (copyright 1995, Gaussian, Inc.),
 the Gaussian 92(TM) system (copyright 1992, Gaussian, Inc.),
 the Gaussian 90(TM) system (copyright 1990, Gaussian, Inc.),
 the Gaussian 88(TM) system (copyright 1988, Gaussian, Inc.),
 the Gaussian 86(TM) system (copyright 1986, Carnegie Mellon
 University), and the Gaussian 82(TM) system (copyright 1983,
 Carnegie Mellon University). Gaussian is a federally registered
 trademark of Gaussian, Inc.
  
 This software contains proprietary and confidential information,
 including trade secrets, belonging to Gaussian, Inc.
  
 This software is provided under written license and may be
 used, copied, transmitted, or stored only in accord with that
 written license.
  
 The following legend is applicable only to US Government
 contracts under FAR:
  
                    RESTRICTED RIGHTS LEGEND
  
 Use, reproduction and disclosure by the US Government is
 subject to restrictions as set forth in subparagraphs (a)
 and (c) of the Commercial Computer Software - Restricted
 Rights clause in FAR 52.227-19.
  
 Gaussian, Inc.
 340 Quinnipiac St., Bldg. 40, Wallingford CT 06492
  
  
 ---------------------------------------------------------------
 Warning -- This program may not be used in any manner that
 competes with the business of Gaussian, Inc. or will provide
 assistance to any competitor of Gaussian, Inc.  The licensee
 of this program is prohibited from giving any competitor of
 Gaussian, Inc. access to this program.  By using this program,
 the user acknowledges that Gaussian, Inc. is engaged in the
 business of creating and licensing software in the field of
 computational chemistry and represents and warrants to the
 licensee that it is not a competitor of Gaussian, Inc. and that
 it will not use this program in any manner prohibited above.
 ---------------------------------------------------------------
  

 Cite this work as:
 Gaussian 16, Revision C.01,
 M. J. Frisch, G. W. Trucks, H. B. Schlegel, G. E. Scuseria, 
 M. A. Robb, J. R. Cheeseman, G. Scalmani, V. Barone, 
 G. A. Petersson, H. Nakatsuji, X. Li, M. Caricato, A. V. Marenich, 
 J. Bloino, B. G. Janesko, R. Gomperts, B. Mennucci, H. P. Hratchian, 
 J. V. Ortiz, A. F. Izmaylov, J. L. Sonnenberg, D. Williams-Young, 
 F. Ding, F. Lipparini, F. Egidi, J. Goings, B. Peng, A. Petrone, 
 T. Henderson, D. Ranasinghe, V. G. Zakrzewski, J. Gao, N. Rega, 
 G. Zheng, W. Liang, M. Hada, M. Ehara, K. Toyota, R. Fukuda, 
 J. Hasegawa, M. Ishida, T. Nakajima, Y. Honda, O. Kitao, H. Nakai, 
 T. Vreven, K. Throssell, J. A. Montgomery, Jr., J. E. Peralta, 
 F. Ogliaro, M. J. Bearpark, J. J. Heyd, E. N. Brothers, K. N. Kudin, 
 V. N. Staroverov, T. A. Keith, R. Kobayashi, J. Normand, 
 K. Raghavachari, A. P. Rendell, J. C. Burant, S. S. Iyengar, 
 J. Tomasi, M. Cossi, J. M. Millam, M. Klene, C. Adamo, R. Cammi, 
 J. W. Ochterski, R. L. Martin, K. Morokuma, O. Farkas, 
 J. B. Foresman, and D. J. Fox, Gaussian, Inc., Wallingford CT, 2019.
 
 ******************************************
 Gaussian 16:  ES64L-G16RevC.01  3-Jul-2019
                22-Feb-2021 
 ******************************************
 %chk=PHWBOXQYWZNQIN-UHFFFAOYSA-N.chk
 %NProcShared=32
 Will use up to   32 processors via shared memory.
 -------------------------------------------------------------
 #P BP86/TZVP EmpiricalDispersion=GD3 SCRF=(Solvent=Water) Opt
 -------------------------------------------------------------
 1/18=20,19=15,26=3,38=1/1,3;
 2/9=110,12=2,17=6,18=5,40=1/2;
 3/5=19,7=101,11=2,25=1,30=1,70=2201,71=1,72=1,74=404,124=31/1,2,3;
 4//1;
 5/5=2,38=5,53=1/2;
 6/7=2,8=2,9=2,10=2,28=1/1;
 7//1,2,3,16;
 1/18=20,19=15,26=3/3(2);
 2/9=110/2;
 99//99;
 2/9=110/2;
 3/5=19,7=101,11=2,25=1,30=1,70=2205,71=1,72=1,74=404,124=31/1,2,3;
 4/5=5,16=3,69=1/1;
 5/5=2,38=5,53=1/2;
 7//1,2,3,16;
 1/18=20,19=15,26=3/3(-5);
 2/9=110/2;
 6/7=2,8=2,9=2,10=2,19=2,28=1/1;
 99/9=1/99;
 Leave Link    1 at Mon Feb 22 21:16:43 2021, MaxMem=           0 cpu:               1.5 elap:               0.1
 (Enter /sw/arch/RedHatEnterpriseServer7/EB_production/2019/software/Gaussian/g16.c01/l101.exe)
 -------------------------------------
 Particle #PHWBOXQYWZNQIN-UHFFFAOYSA-N
 -------------------------------------
 Symbolic Z-matrix:
 Charge =  0 Multiplicity = 1
 Cl                    5.59688   0.78702  -3.76148 
 C                     6.72849  -0.03488  -2.80053 
 C                     7.71419  -0.79199  -3.46736 
 C                     8.67525  -1.51013  -2.73503 
 C                     8.64925  -1.48361  -1.33104 
 C                     7.67805  -0.71773  -0.65913 
 C                     6.70912   0.02445  -1.37987 
 C                     5.70407   0.84081  -0.63549 
 N                     4.31116   0.30118  -0.75782 
 C                     3.2548    1.27664  -0.32335 
 C                     1.82211   0.74866  -0.61292 
 C                     1.69917  -0.66805  -0.23664 
 S                     0.23256  -1.59262   0.03277 
 C                     1.04741  -3.0889    0.45228 
 C                     2.42077  -2.84428   0.37293 
 C                     2.77542  -1.53376  -0.00822 
 C                     4.16878  -1.06643  -0.14657 
 H                     7.73903  -0.82676  -4.49025 
 H                     9.39283  -2.05053  -3.2233 
 H                     9.33973  -2.0225   -0.80151 
 H                     7.68257  -0.70553   0.36483 
 H                     5.75191   1.86024  -1.02716 
 H                     5.96353   0.91298   0.42535 
 H                     3.35431   1.47777   0.74834 
 H                     3.37513   2.22427  -0.85485 
 H                     1.0923    1.34111  -0.05471 
 H                     1.59766   0.84125  -1.67731 
 H                     0.60121  -3.97041   0.70838 
 H                     3.11267  -3.56955   0.57538 
 H                     4.62497  -1.09222   0.84636 
 H                     4.69182  -1.77975  -0.78703 
 
 ITRead=  0  0  0  0  0  0  0  0  0  0  0  0  0  0  0  0  0  0  0  0
 ITRead=  0  0  0  0  0  0  0  0  0  0  0
 MicOpt= -1 -1 -1 -1 -1 -1 -1 -1 -1 -1 -1 -1 -1 -1 -1 -1 -1 -1 -1 -1
 MicOpt= -1 -1 -1 -1 -1 -1 -1 -1 -1 -1 -1
 NAtoms=     31 NQM=       31 NQMF=       0 NMMI=      0 NMMIF=      0
                NMic=       0 NMicF=      0.
                    Isotopes and Nuclear Properties:
 (Nuclear quadrupole moments (NQMom) in fm**2, nuclear magnetic moments (NMagM)
  in nuclear magnetons)

  Atom         1           2           3           4           5           6           7           8           9          10
 IAtWgt=          35          12          12          12          12          12          12          12          14          12
 AtmWgt=  34.9688527  12.0000000  12.0000000  12.0000000  12.0000000  12.0000000  12.0000000  12.0000000  14.0030740  12.0000000
 NucSpn=           3           0           0           0           0           0           0           0           2           0
 AtZEff=  -0.0000000  -0.0000000  -0.0000000  -0.0000000  -0.0000000  -0.0000000  -0.0000000  -0.0000000  -0.0000000  -0.0000000
 NQMom=   -8.1650000   0.0000000   0.0000000   0.0000000   0.0000000   0.0000000   0.0000000   0.0000000   2.0440000   0.0000000
 NMagM=    0.8218740   0.0000000   0.0000000   0.0000000   0.0000000   0.0000000   0.0000000   0.0000000   0.4037610   0.0000000
 AtZNuc=  17.0000000   6.0000000   6.0000000   6.0000000   6.0000000   6.0000000   6.0000000   6.0000000   7.0000000   6.0000000

  Atom        11          12          13          14          15          16          17          18          19          20
 IAtWgt=          12          12          32          12          12          12          12           1           1           1
 AtmWgt=  12.0000000  12.0000000  31.9720718  12.0000000  12.0000000  12.0000000  12.0000000   1.0078250   1.0078250   1.0078250
 NucSpn=           0           0           0           0           0           0           0           1           1           1
 AtZEff=  -0.0000000  -0.0000000  -0.0000000  -0.0000000  -0.0000000  -0.0000000  -0.0000000  -0.0000000  -0.0000000  -0.0000000
 NQMom=    0.0000000   0.0000000   0.0000000   0.0000000   0.0000000   0.0000000   0.0000000   0.0000000   0.0000000   0.0000000
 NMagM=    0.0000000   0.0000000   0.0000000   0.0000000   0.0000000   0.0000000   0.0000000   2.7928460   2.7928460   2.7928460
 AtZNuc=   6.0000000   6.0000000  16.0000000   6.0000000   6.0000000   6.0000000   6.0000000   1.0000000   1.0000000   1.0000000

  Atom        21          22          23          24          25          26          27          28          29          30
 IAtWgt=           1           1           1           1           1           1           1           1           1           1
 AtmWgt=   1.0078250   1.0078250   1.0078250   1.0078250   1.0078250   1.0078250   1.0078250   1.0078250   1.0078250   1.0078250
 NucSpn=           1           1           1           1           1           1           1           1           1           1
 AtZEff=  -0.0000000  -0.0000000  -0.0000000  -0.0000000  -0.0000000  -0.0000000  -0.0000000  -0.0000000  -0.0000000  -0.0000000
 NQMom=    0.0000000   0.0000000   0.0000000   0.0000000   0.0000000   0.0000000   0.0000000   0.0000000   0.0000000   0.0000000
 NMagM=    2.7928460   2.7928460   2.7928460   2.7928460   2.7928460   2.7928460   2.7928460   2.7928460   2.7928460   2.7928460
 AtZNuc=   1.0000000   1.0000000   1.0000000   1.0000000   1.0000000   1.0000000   1.0000000   1.0000000   1.0000000   1.0000000

  Atom        31
 IAtWgt=           1
 AtmWgt=   1.0078250
 NucSpn=           1
 AtZEff=  -0.0000000
 NQMom=    0.0000000
 NMagM=    2.7928460
 AtZNuc=   1.0000000
 Leave Link  101 at Mon Feb 22 21:16:44 2021, MaxMem=   104857600 cpu:               3.2 elap:               0.2
 (Enter /sw/arch/RedHatEnterpriseServer7/EB_production/2019/software/Gaussian/g16.c01/l103.exe)

 GradGradGradGradGradGradGradGradGradGradGradGradGradGradGradGradGradGrad
 Berny optimization.
 Initialization pass.
                           ----------------------------
                           !    Initial Parameters    !
                           ! (Angstroms and Degrees)  !
 --------------------------                            --------------------------
 ! Name  Definition              Value          Derivative Info.                !
 --------------------------------------------------------------------------------
 ! R1    R(1,2)                  1.6969         estimate D2E/DX2                !
 ! R2    R(2,3)                  1.4105         estimate D2E/DX2                !
 ! R3    R(2,7)                  1.422          estimate D2E/DX2                !
 ! R4    R(3,4)                  1.4056         estimate D2E/DX2                !
 ! R5    R(3,18)                 1.0238         estimate D2E/DX2                !
 ! R6    R(4,5)                  1.4045         estimate D2E/DX2                !
 ! R7    R(4,19)                 1.0224         estimate D2E/DX2                !
 ! R8    R(5,6)                  1.4076         estimate D2E/DX2                !
 ! R9    R(5,20)                 1.0235         estimate D2E/DX2                !
 ! R10   R(6,7)                  1.4174         estimate D2E/DX2                !
 ! R11   R(6,21)                 1.024          estimate D2E/DX2                !
 ! R12   R(7,8)                  1.4935         estimate D2E/DX2                !
 ! R13   R(8,9)                  1.4988         estimate D2E/DX2                !
 ! R14   R(8,22)                 1.0931         estimate D2E/DX2                !
 ! R15   R(8,23)                 1.0945         estimate D2E/DX2                !
 ! R16   R(9,10)                 1.5021         estimate D2E/DX2                !
 ! R17   R(9,17)                 1.5047         estimate D2E/DX2                !
 ! R18   R(10,11)                1.5541         estimate D2E/DX2                !
 ! R19   R(10,24)                1.0949         estimate D2E/DX2                !
 ! R20   R(10,25)                1.0931         estimate D2E/DX2                !
 ! R21   R(11,12)                1.471          estimate D2E/DX2                !
 ! R22   R(11,26)                1.0933         estimate D2E/DX2                !
 ! R23   R(11,27)                1.0917         estimate D2E/DX2                !
 ! R24   R(12,13)                1.7545         estimate D2E/DX2                !
 ! R25   R(12,16)                1.4            estimate D2E/DX2                !
 ! R26   R(13,14)                1.7547         estimate D2E/DX2                !
 ! R27   R(14,15)                1.3972         estimate D2E/DX2                !
 ! R28   R(14,28)                1.0207         estimate D2E/DX2                !
 ! R29   R(15,16)                1.4101         estimate D2E/DX2                !
 ! R30   R(15,29)                1.0226         estimate D2E/DX2                !
 ! R31   R(16,17)                1.4761         estimate D2E/DX2                !
 ! R32   R(17,30)                1.093          estimate D2E/DX2                !
 ! R33   R(17,31)                1.0921         estimate D2E/DX2                !
 ! A1    A(1,2,3)              117.2769         estimate D2E/DX2                !
 ! A2    A(1,2,7)              122.4429         estimate D2E/DX2                !
 ! A3    A(3,2,7)              120.2798         estimate D2E/DX2                !
 ! A4    A(2,3,4)              120.3814         estimate D2E/DX2                !
 ! A5    A(2,3,18)             120.5            estimate D2E/DX2                !
 ! A6    A(4,3,18)             119.1186         estimate D2E/DX2                !
 ! A7    A(3,4,5)              119.9026         estimate D2E/DX2                !
 ! A8    A(3,4,19)             120.0732         estimate D2E/DX2                !
 ! A9    A(5,4,19)             120.0241         estimate D2E/DX2                !
 ! A10   A(4,5,6)              120.0155         estimate D2E/DX2                !
 ! A11   A(4,5,20)             119.6537         estimate D2E/DX2                !
 ! A12   A(6,5,20)             120.3308         estimate D2E/DX2                !
 ! A13   A(5,6,7)              120.9195         estimate D2E/DX2                !
 ! A14   A(5,6,21)             118.7345         estimate D2E/DX2                !
 ! A15   A(7,6,21)             120.346          estimate D2E/DX2                !
 ! A16   A(2,7,6)              118.4789         estimate D2E/DX2                !
 ! A17   A(2,7,8)              121.998          estimate D2E/DX2                !
 ! A18   A(6,7,8)              119.5231         estimate D2E/DX2                !
 ! A19   A(7,8,9)              112.8249         estimate D2E/DX2                !
 ! A20   A(7,8,22)             107.5606         estimate D2E/DX2                !
 ! A21   A(7,8,23)             111.0752         estimate D2E/DX2                !
 ! A22   A(9,8,22)             110.3161         estimate D2E/DX2                !
 ! A23   A(9,8,23)             108.8544         estimate D2E/DX2                !
 ! A24   A(22,8,23)            105.9869         estimate D2E/DX2                !
 ! A25   A(8,9,10)             113.3388         estimate D2E/DX2                !
 ! A26   A(8,9,17)             112.4585         estimate D2E/DX2                !
 ! A27   A(10,9,17)            113.9657         estimate D2E/DX2                !
 ! A28   A(9,10,11)            111.9508         estimate D2E/DX2                !
 ! A29   A(9,10,24)            109.7847         estimate D2E/DX2                !
 ! A30   A(9,10,25)            110.1766         estimate D2E/DX2                !
 ! A31   A(11,10,24)           109.1815         estimate D2E/DX2                !
 ! A32   A(11,10,25)           107.7818         estimate D2E/DX2                !
 ! A33   A(24,10,25)           107.8573         estimate D2E/DX2                !
 ! A34   A(10,11,12)           110.8907         estimate D2E/DX2                !
 ! A35   A(10,11,26)           109.6432         estimate D2E/DX2                !
 ! A36   A(10,11,27)           110.0218         estimate D2E/DX2                !
 ! A37   A(12,11,26)           109.6039         estimate D2E/DX2                !
 ! A38   A(12,11,27)           108.2942         estimate D2E/DX2                !
 ! A39   A(26,11,27)           108.3368         estimate D2E/DX2                !
 ! A40   A(11,12,13)           128.073          estimate D2E/DX2                !
 ! A41   A(11,12,16)           124.963          estimate D2E/DX2                !
 ! A42   A(13,12,16)           106.9595         estimate D2E/DX2                !
 ! A43   A(12,13,14)            95.6178         estimate D2E/DX2                !
 ! A44   A(13,14,15)           107.0728         estimate D2E/DX2                !
 ! A45   A(13,14,28)           126.4032         estimate D2E/DX2                !
 ! A46   A(15,14,28)           126.5238         estimate D2E/DX2                !
 ! A47   A(14,15,16)           115.167          estimate D2E/DX2                !
 ! A48   A(14,15,29)           121.9806         estimate D2E/DX2                !
 ! A49   A(16,15,29)           122.8522         estimate D2E/DX2                !
 ! A50   A(12,16,15)           115.1787         estimate D2E/DX2                !
 ! A51   A(12,16,17)           120.9699         estimate D2E/DX2                !
 ! A52   A(15,16,17)           123.8451         estimate D2E/DX2                !
 ! A53   A(9,17,16)            114.5271         estimate D2E/DX2                !
 ! A54   A(9,17,30)            110.5468         estimate D2E/DX2                !
 ! A55   A(9,17,31)            108.0658         estimate D2E/DX2                !
 ! A56   A(16,17,30)           107.5387         estimate D2E/DX2                !
 ! A57   A(16,17,31)           107.4735         estimate D2E/DX2                !
 ! A58   A(30,17,31)           108.5093         estimate D2E/DX2                !
 ! D1    D(1,2,3,4)           -179.3265         estimate D2E/DX2                !
 ! D2    D(1,2,3,18)             0.6164         estimate D2E/DX2                !
 ! D3    D(7,2,3,4)              0.8939         estimate D2E/DX2                !
 ! D4    D(7,2,3,18)          -179.1632         estimate D2E/DX2                !
 ! D5    D(1,2,7,6)            178.7064         estimate D2E/DX2                !
 ! D6    D(1,2,7,8)             -1.3026         estimate D2E/DX2                !
 ! D7    D(3,2,7,6)             -1.5257         estimate D2E/DX2                !
 ! D8    D(3,2,7,8)            178.4653         estimate D2E/DX2                !
 ! D9    D(2,3,4,5)              0.5081         estimate D2E/DX2                !
 ! D10   D(2,3,4,19)          -179.4423         estimate D2E/DX2                !
 ! D11   D(18,3,4,5)          -179.4355         estimate D2E/DX2                !
 ! D12   D(18,3,4,19)            0.6141         estimate D2E/DX2                !
 ! D13   D(3,4,5,6)             -1.2454         estimate D2E/DX2                !
 ! D14   D(3,4,5,20)           178.8176         estimate D2E/DX2                !
 ! D15   D(19,4,5,6)           178.705          estimate D2E/DX2                !
 ! D16   D(19,4,5,20)           -1.232          estimate D2E/DX2                !
 ! D17   D(4,5,6,7)              0.5881         estimate D2E/DX2                !
 ! D18   D(4,5,6,21)          -179.4327         estimate D2E/DX2                !
 ! D19   D(20,5,6,7)          -179.4754         estimate D2E/DX2                !
 ! D20   D(20,5,6,21)            0.5038         estimate D2E/DX2                !
 ! D21   D(5,6,7,2)              0.792          estimate D2E/DX2                !
 ! D22   D(5,6,7,8)           -179.1991         estimate D2E/DX2                !
 ! D23   D(21,6,7,2)          -179.1869         estimate D2E/DX2                !
 ! D24   D(21,6,7,8)             0.822          estimate D2E/DX2                !
 ! D25   D(2,7,8,9)             68.2652         estimate D2E/DX2                !
 ! D26   D(2,7,8,22)           -53.6253         estimate D2E/DX2                !
 ! D27   D(2,7,8,23)          -169.1908         estimate D2E/DX2                !
 ! D28   D(6,7,8,9)           -111.7439         estimate D2E/DX2                !
 ! D29   D(6,7,8,22)           126.3655         estimate D2E/DX2                !
 ! D30   D(6,7,8,23)            10.8            estimate D2E/DX2                !
 ! D31   D(7,8,9,10)          -165.3327         estimate D2E/DX2                !
 ! D32   D(7,8,9,17)            63.5923         estimate D2E/DX2                !
 ! D33   D(22,8,9,10)          -45.0093         estimate D2E/DX2                !
 ! D34   D(22,8,9,17)         -176.0842         estimate D2E/DX2                !
 ! D35   D(23,8,9,10)           70.8886         estimate D2E/DX2                !
 ! D36   D(23,8,9,17)          -60.1864         estimate D2E/DX2                !
 ! D37   D(8,9,10,11)          173.5308         estimate D2E/DX2                !
 ! D38   D(8,9,10,24)          -65.0402         estimate D2E/DX2                !
 ! D39   D(8,9,10,25)           53.6043         estimate D2E/DX2                !
 ! D40   D(17,9,10,11)         -56.1458         estimate D2E/DX2                !
 ! D41   D(17,9,10,24)          65.2832         estimate D2E/DX2                !
 ! D42   D(17,9,10,25)        -176.0723         estimate D2E/DX2                !
 ! D43   D(8,9,17,16)          168.8849         estimate D2E/DX2                !
 ! D44   D(8,9,17,30)           47.2321         estimate D2E/DX2                !
 ! D45   D(8,9,17,31)          -71.3793         estimate D2E/DX2                !
 ! D46   D(10,9,17,16)          38.1267         estimate D2E/DX2                !
 ! D47   D(10,9,17,30)         -83.5261         estimate D2E/DX2                !
 ! D48   D(10,9,17,31)         157.8625         estimate D2E/DX2                !
 ! D49   D(9,10,11,12)          43.7469         estimate D2E/DX2                !
 ! D50   D(9,10,11,26)         164.9148         estimate D2E/DX2                !
 ! D51   D(9,10,11,27)         -76.0336         estimate D2E/DX2                !
 ! D52   D(24,10,11,12)        -78.029          estimate D2E/DX2                !
 ! D53   D(24,10,11,26)         43.1389         estimate D2E/DX2                !
 ! D54   D(24,10,11,27)        162.1905         estimate D2E/DX2                !
 ! D55   D(25,10,11,12)        165.0649         estimate D2E/DX2                !
 ! D56   D(25,10,11,26)        -73.7671         estimate D2E/DX2                !
 ! D57   D(25,10,11,27)         45.2845         estimate D2E/DX2                !
 ! D58   D(10,11,12,13)        162.4193         estimate D2E/DX2                !
 ! D59   D(10,11,12,16)        -16.6977         estimate D2E/DX2                !
 ! D60   D(26,11,12,13)         41.2283         estimate D2E/DX2                !
 ! D61   D(26,11,12,16)       -137.8888         estimate D2E/DX2                !
 ! D62   D(27,11,12,13)        -76.7727         estimate D2E/DX2                !
 ! D63   D(27,11,12,16)        104.1102         estimate D2E/DX2                !
 ! D64   D(11,12,13,14)       -178.7837         estimate D2E/DX2                !
 ! D65   D(16,12,13,14)          0.4598         estimate D2E/DX2                !
 ! D66   D(11,12,16,15)        178.5784         estimate D2E/DX2                !
 ! D67   D(11,12,16,17)         -0.5446         estimate D2E/DX2                !
 ! D68   D(13,12,16,15)         -0.695          estimate D2E/DX2                !
 ! D69   D(13,12,16,17)       -179.818          estimate D2E/DX2                !
 ! D70   D(12,13,14,15)         -0.1228         estimate D2E/DX2                !
 ! D71   D(12,13,14,28)        179.7207         estimate D2E/DX2                !
 ! D72   D(13,14,15,16)         -0.2628         estimate D2E/DX2                !
 ! D73   D(13,14,15,29)        179.9219         estimate D2E/DX2                !
 ! D74   D(28,14,15,16)        179.8939         estimate D2E/DX2                !
 ! D75   D(28,14,15,29)          0.0787         estimate D2E/DX2                !
 ! D76   D(14,15,16,12)          0.6576         estimate D2E/DX2                !
 ! D77   D(14,15,16,17)        179.7522         estimate D2E/DX2                !
 ! D78   D(29,15,16,12)       -179.529          estimate D2E/DX2                !
 ! D79   D(29,15,16,17)         -0.4344         estimate D2E/DX2                !
 ! D80   D(12,16,17,9)          -9.587          estimate D2E/DX2                !
 ! D81   D(12,16,17,30)        113.6978         estimate D2E/DX2                !
 ! D82   D(12,16,17,31)       -129.6529         estimate D2E/DX2                !
 ! D83   D(15,16,17,9)         171.3686         estimate D2E/DX2                !
 ! D84   D(15,16,17,30)        -65.3466         estimate D2E/DX2                !
 ! D85   D(15,16,17,31)         51.3027         estimate D2E/DX2                !
 --------------------------------------------------------------------------------
 Trust Radius=3.00D-01 FncErr=1.00D-07 GrdErr=1.00D-06 EigMax=2.50D+02 EigMin=1.00D-04
 Number of steps in this run=    186 maximum allowed number of steps=    186.
 GradGradGradGradGradGradGradGradGradGradGradGradGradGradGradGradGradGrad

 Leave Link  103 at Mon Feb 22 21:16:44 2021, MaxMem=   104857600 cpu:               0.5 elap:               0.0
 (Enter /sw/arch/RedHatEnterpriseServer7/EB_production/2019/software/Gaussian/g16.c01/l202.exe)
                          Input orientation:                          
 ---------------------------------------------------------------------
 Center     Atomic      Atomic             Coordinates (Angstroms)
 Number     Number       Type             X           Y           Z
 ---------------------------------------------------------------------
      1         17           0        5.596880    0.787020   -3.761480
      2          6           0        6.728490   -0.034880   -2.800530
      3          6           0        7.714190   -0.791990   -3.467360
      4          6           0        8.675250   -1.510130   -2.735030
      5          6           0        8.649250   -1.483610   -1.331040
      6          6           0        7.678050   -0.717730   -0.659130
      7          6           0        6.709120    0.024450   -1.379870
      8          6           0        5.704070    0.840810   -0.635490
      9          7           0        4.311160    0.301180   -0.757820
     10          6           0        3.254800    1.276640   -0.323350
     11          6           0        1.822110    0.748660   -0.612920
     12          6           0        1.699170   -0.668050   -0.236640
     13         16           0        0.232560   -1.592620    0.032770
     14          6           0        1.047410   -3.088900    0.452280
     15          6           0        2.420770   -2.844280    0.372930
     16          6           0        2.775420   -1.533760   -0.008220
     17          6           0        4.168780   -1.066430   -0.146570
     18          1           0        7.739030   -0.826760   -4.490250
     19          1           0        9.392830   -2.050530   -3.223300
     20          1           0        9.339730   -2.022500   -0.801510
     21          1           0        7.682570   -0.705530    0.364830
     22          1           0        5.751910    1.860240   -1.027160
     23          1           0        5.963530    0.912980    0.425350
     24          1           0        3.354310    1.477770    0.748340
     25          1           0        3.375130    2.224270   -0.854850
     26          1           0        1.092300    1.341110   -0.054710
     27          1           0        1.597660    0.841250   -1.677310
     28          1           0        0.601210   -3.970410    0.708380
     29          1           0        3.112670   -3.569550    0.575380
     30          1           0        4.624970   -1.092220    0.846360
     31          1           0        4.691820   -1.779750   -0.787030
 ---------------------------------------------------------------------
                    Distance matrix (angstroms):
                    1          2          3          4          5
     1  Cl   0.000000
     2  C    1.696905   0.000000
     3  C    2.657589   1.410490   0.000000
     4  C    3.975784   2.443466   1.405585   0.000000
     5  C    4.514395   2.819138   2.432394   1.404481   0.000000
     6  C    4.027421   2.439988   2.809444   2.435501   1.407574
     7  C    2.736906   1.422030   2.456492   2.838496   2.457790
     8  C    3.128290   2.550229   3.837461   4.331616   3.815862
     9  N    3.303194   3.182622   4.485225   5.122059   4.725789
    10  C    4.188771   4.463522   5.835254   6.554660   6.142842
    11  C    4.915668   5.428825   6.725923   7.521370   7.218626
    12  C    5.452877   5.680537   6.828864   7.457663   7.082829
    13  S    6.988201   7.256118   8.298597   8.885186   8.527164
    14  C    7.312743   7.223744   8.067548   8.416377   7.971522
    15  C    6.353531   6.043180   6.854197   7.110407   6.599159
    16  C    5.237711   5.066596   6.075140   6.499542   6.021150
    17  C    4.306080   3.828801   4.865480   5.215867   4.653130
    18  H    2.779244   2.122126   1.023782   2.103402   3.352694
    19  H    4.769755   3.367534   2.112184   1.022429   2.110677
    20  H    5.537486   3.842563   3.356083   2.107737   1.023507
    21  H    4.858420   3.373358   3.833296   3.352898   2.101393
    22  H    2.941486   2.773090   4.103589   4.777251   4.434891
    23  H    4.204741   3.448174   4.596186   4.817976   4.005202
    24  H    5.083771   5.125200   6.475530   7.026650   6.413266
    25  H    3.930694   4.487143   5.894953   6.750710   6.464632
    26  H    5.859898   6.418685   7.748918   8.533160   8.167959
    27  H    4.510041   5.324908   6.579034   7.532598   7.433021
    28  H    8.220067   8.083589   8.839324   9.115930   8.666854
    29  H    6.630185   6.079870   6.725517   6.792814   6.216052
    30  H    5.070339   4.340803   5.314283   5.422709   4.592286
    31  H    4.031724   3.353622   4.158673   4.442422   4.005608
                    6          7          8          9         10
     6  C    0.000000
     7  C    1.417435   0.000000
     8  C    2.515194   1.493543   0.000000
     9  N    3.519072   2.492737   1.498787   0.000000
    10  C    4.863682   3.823159   2.507250   1.502060   0.000000
    11  C    6.036925   4.999556   3.883119   2.533102   1.554096
    12  C    5.993995   5.185184   4.298251   2.834348   2.491851
    13  S    7.528578   6.823217   6.025411   4.565796   4.182512
    14  C    7.129030   6.716002   6.189535   4.858914   4.952990
    15  C    5.764231   5.449024   5.037545   3.840064   4.261736
    16  C    5.012521   4.447858   3.822178   2.507469   2.868355
    17  C    3.563606   3.027272   2.496742   1.504744   2.521227
    18  H    3.833156   3.385223   4.667015   5.191683   6.472686
    19  H    3.360326   3.860839   5.353836   6.118211   7.560105
    20  H    2.117517   3.382989   4.630781   5.539667   6.938252
    21  H    1.024043   2.127076   2.703011   3.693266   4.899769
    22  H    3.239042   2.100186   1.093129   2.139853   2.659228
    23  H    2.602862   2.145742   1.094491   2.122385   2.833729
    24  H    5.049348   4.230386   2.800371   2.137392   1.094931
    25  H    5.216205   4.028690   2.717727   2.140991   1.093149
    26  H    6.926489   5.919317   4.675043   3.454979   2.180076
    27  H    6.359108   5.184849   4.236507   2.915514   2.183778
    28  H    7.907697   7.591196   7.140939   5.844652   5.969719
    29  H    5.522643   5.447411   5.256694   4.265718   4.930870
    30  H    3.424623   3.247573   2.664008   2.147891   2.976086
    31  H    3.172036   2.770577   2.813352   2.115662   3.409039
                   11         12         13         14         15
    11  C    0.000000
    12  C    1.470975   0.000000
    13  S    2.902616   1.754525   0.000000
    14  C    4.057299   2.599984   1.754658   0.000000
    15  C    3.773528   2.372395   2.543742   1.397230   0.000000
    16  C    2.546351   1.399980   2.543871   2.369924   1.410147
    17  C    3.003147   2.503157   3.975282   3.767221   2.546796
    18  H    7.247453   7.389066   8.797235   8.621117   7.483635
    19  H    8.483239   8.368022   9.732534   9.177916   7.884956
    20  H    8.014331   7.780217   9.155401   8.454098   7.065879
    21  H    6.116834   6.013672   7.509983   7.050776   5.679864
    22  H    4.104940   4.841681   6.596129   6.986777   5.932053
    23  H    4.272747   4.595939   6.267070   6.339085   5.164388
    24  H    2.175377   2.883438   4.436740   5.124833   4.437628
    25  H    2.155882   3.399491   5.023173   5.946145   5.301740
    26  H    1.093260   2.106683   3.058362   4.459153   4.411938
    27  H    1.091731   2.088976   3.272857   4.503777   4.296990
    28  H    5.050352   3.606128   2.499247   1.020657   2.165986
    29  H    4.660959   3.328072   3.535210   2.124024   1.022609
    30  H    3.657097   3.148510   4.495063   4.115940   2.855232
    31  H    3.828630   3.239562   4.537851   4.065893   2.763404
                   16         17         18         19         20
    16  C    0.000000
    17  C    1.476140   0.000000
    18  H    6.725018   5.627760   0.000000
    19  H    7.375222   6.142102   2.416160   0.000000
    20  H    6.630109   5.299221   4.195097   2.422534   0.000000
    21  H    4.990516   3.569103   4.856921   4.196271   2.416803
    22  H    4.627847   3.441967   4.812651   5.776976   5.291412
    23  H    4.042099   2.732450   5.508377   5.818517   4.639068
    24  H    3.158609   2.817300   7.209678   8.042795   7.104870
    25  H    3.898618   3.458359   6.447367   7.752173   7.322182
    26  H    3.331656   3.907610   8.279655   9.510099   8.938215
    27  H    3.132675   3.548671   6.957824   8.456781   8.301068
    28  H    3.343347   4.678845   9.373194   9.820215   9.079419
    29  H    2.144474   2.811083   7.388282   7.495185   6.562428
    30  H    2.084730   1.093016   6.184436   6.341370   5.080340
    31  H    2.083181   1.092056   4.889531   5.301719   4.654267
                   21         22         23         24         25
    21  H    0.000000
    22  H    3.499751   0.000000
    23  H    2.361850   1.746960   0.000000
    24  H    4.862891   3.007851   2.689115   0.000000
    25  H    5.350270   2.410662   3.171468   1.768591   0.000000
    26  H    6.913495   4.788227   4.913516   2.404216   2.575172
    27  H    6.602196   4.326526   4.846354   3.061822   2.397621
    28  H    7.805327   7.971091   7.258242   6.104410   6.965083
    29  H    5.397307   6.246306   5.314413   5.056060   5.973508
    30  H    3.119346   3.673839   2.447411   2.868629   3.931326
    31  H    3.380135   3.798813   3.215261   3.841579   4.215501
                   26         27         28         29         30
    26  H    0.000000
    27  H    1.771463   0.000000
    28  H    5.388480   5.462280   0.000000
    29  H    5.347288   5.179288   2.546725   0.000000
    30  H    4.383238   4.389968   4.949107   2.915072   0.000000
    31  H    4.820021   4.151634   4.875278   2.748319   1.773451
                   31
    31  H    0.000000
 Stoichiometry    C14H14ClNS
 Framework group  C1[X(C14H14ClNS)]
 Deg. of freedom    87
 Full point group                 C1      NOp   1
 Largest Abelian subgroup         C1      NOp   1
 Largest concise Abelian subgroup C1      NOp   1
                         Standard orientation:                         
 ---------------------------------------------------------------------
 Center     Atomic      Atomic             Coordinates (Angstroms)
 Number     Number       Type             X           Y           Z
 ---------------------------------------------------------------------
      1         17           0       -2.254392   -1.921221   -1.143172
      2          6           0       -2.803703   -0.456114   -0.486510
      3          6           0       -3.840684    0.210832   -1.171590
      4          6           0       -4.335624    1.436264   -0.693029
      5          6           0       -3.788640    2.006927    0.467883
      6          6           0       -2.764338    1.339317    1.165283
      7          6           0       -2.261491    0.096011    0.706526
      8          6           0       -1.186672   -0.593994    1.480688
      9          7           0        0.122747   -0.629968    0.752340
     10          6           0        1.104001   -1.603613    1.339998
     11          6           0        2.385225   -1.733655    0.470074
     12          6           0        2.853565   -0.412088    0.025229
     13         16           0        4.435796    0.022280   -0.596241
     14          6           0        4.074959    1.726215   -0.808901
     15          6           0        2.752373    1.919360   -0.401820
     16          6           0        2.086428    0.758857    0.043452
     17          6           0        0.689660    0.744527    0.520760
     18          1           0       -4.242247   -0.189988   -2.023776
     19          1           0       -5.093229    1.911468   -1.188587
     20          1           0       -4.139488    2.908212    0.802783
     21          1           0       -2.385799    1.768984    2.014258
     22          1           0       -1.531936   -1.609591    1.691134
     23          1           0       -1.036473   -0.118695    2.455080
     24          1           0        1.384986   -1.283404    2.348654
     25          1           0        0.650823   -2.595400    1.417212
     26          1           0        3.172390   -2.226832    1.046585
     27          1           0        2.176721   -2.338879   -0.414294
     28          1           0        4.712659    2.441048   -1.161172
     29          1           0        2.305637    2.838779   -0.430510
     30          1           0        0.649318    1.335864    1.439115
     31          1           0        0.078979    1.239422   -0.237352
 ---------------------------------------------------------------------
 Rotational constants (GHZ):           0.7620142           0.2020797           0.1841068
 Leave Link  202 at Mon Feb 22 21:16:44 2021, MaxMem=   104857600 cpu:               0.2 elap:               0.0
 (Enter /sw/arch/RedHatEnterpriseServer7/EB_production/2019/software/Gaussian/g16.c01/l301.exe)
 Standard basis: TZVP (5D, 7F)
 Ernie: Thresh=  0.10000D-02 Tol=  0.10000D-05 Strict=F.
 There are   430 symmetry adapted cartesian basis functions of A   symmetry.
 There are   413 symmetry adapted basis functions of A   symmetry.
   413 basis functions,   731 primitive gaussians,   430 cartesian basis functions
    69 alpha electrons       69 beta electrons
       nuclear repulsion energy      1370.2445016160 Hartrees.
 IExCor=  404 DFT=T Ex=B Corr=P86 ExCW=0 ScaHFX=  0.000000
 ScaDFX=  1.000000  1.000000  1.000000  1.000000 ScalE2=  1.000000  1.000000
 IRadAn=      5 IRanWt=     -1 IRanGd=            0 ICorTp=0 IEmpDi=131
 NAtoms=   31 NActive=   31 NUniq=   31 SFac= 1.00D+00 NAtFMM=   60 NAOKFM=F Big=F
 Integral buffers will be    131072 words long.
 Raffenetti 2 integral format.
 Two-electron integral symmetry is turned on.
 R6Disp:  Grimme-D3 Dispersion energy=       -0.0363274564 Hartrees.
 Nuclear repulsion after empirical dispersion term =     1370.2081741595 Hartrees.
 ------------------------------------------------------------------------------
 Polarizable Continuum Model (PCM)
 =================================
 Model                : PCM.
 Atomic radii         : UFF (Universal Force Field).
 Polarization charges : Total charges.
 Charge compensation  : None.
 Solution method      : On-the-fly selection.
 Cavity type          : Scaled VdW (van der Waals Surface) (Alpha=1.100).
 Cavity algorithm     : GePol (No added spheres)
                        Default sphere list used, NSphG=   31.
                        Lebedev-Laikov grids with approx.  5.0 points / Ang**2.
                        Smoothing algorithm: York/Karplus (Gamma=1.0000).
                        Polarization charges: spherical gaussians, with
                                              point-specific exponents (IZeta= 3).
                        Self-potential: point-specific (ISelfS= 7).
                        Self-field    : sphere-specific E.n sum rule (ISelfD= 2).
 1st derivatives      : Analytical E(r).r(x)/FMM algorithm (CHGder, D1EAlg=3).
                        Cavity 1st derivative terms included.
 Solvent              : Water, Eps=  78.355300 Eps(inf)=   1.777849
 ------------------------------------------------------------------------------
 GePol: Number of generator spheres                  =      31
 GePol: Total number of spheres                      =      31
 GePol: Number of exposed spheres                    =      31 (100.00%)
 GePol: Number of points                             =    2419
 GePol: Average weight of points                     =       0.13
 GePol: Minimum weight of points                     =   0.91D-10
 GePol: Maximum weight of points                     =    0.21616
 GePol: Number of points with low weight             =     161
 GePol: Fraction of low-weight points (<1% of avg)   =       6.66%
 GePol: Cavity surface area                          =    322.644 Ang**2
 GePol: Cavity volume                                =    349.428 Ang**3
 Leave Link  301 at Mon Feb 22 21:16:44 2021, MaxMem=   104857600 cpu:               2.3 elap:               0.1
 (Enter /sw/arch/RedHatEnterpriseServer7/EB_production/2019/software/Gaussian/g16.c01/l302.exe)
 NPDir=0 NMtPBC=     1 NCelOv=     1 NCel=       1 NClECP=     1 NCelD=      1
         NCelK=      1 NCelE2=     1 NClLst=     1 CellRange=     0.0.
 One-electron integrals computed using PRISM.
 One-electron integral symmetry used in STVInt
 PrsmSu:  requested number of processors reduced to:  26 ShMem   1 Linda.
 NBasis=   413 RedAO= T EigKep=  9.99D-06  NBF=   413
 NBsUse=   413 1.00D-06 EigRej= -1.00D+00 NBFU=   413
 Precomputing XC quadrature grid using
 IXCGrd= 4 IRadAn=           5 IRanWt=          -1 IRanGd=           0 AccXCQ= 0.00D+00.
 Generated NRdTot=       0 NPtTot=           0 NUsed=           0 NTot=          32
 NSgBfM=   424   424   424   424   424 MxSgAt=    31 MxSgA2=    31.
 Leave Link  302 at Mon Feb 22 21:16:45 2021, MaxMem=   104857600 cpu:              15.4 elap:               0.6
 (Enter /sw/arch/RedHatEnterpriseServer7/EB_production/2019/software/Gaussian/g16.c01/l303.exe)
 DipDrv:  MaxL=1.
 Leave Link  303 at Mon Feb 22 21:16:45 2021, MaxMem=   104857600 cpu:               1.9 elap:               0.1
 (Enter /sw/arch/RedHatEnterpriseServer7/EB_production/2019/software/Gaussian/g16.c01/l401.exe)
 ExpMin= 9.52D-02 ExpMax= 6.95D+04 ExpMxC= 2.37D+03 IAcc=3 IRadAn=         5 AccDes= 0.00D+00
 Harris functional with IExCor=  404 and IRadAn=       5 diagonalized for initial guess.
 HarFok:  IExCor=  404 AccDes= 0.00D+00 IRadAn=         5 IDoV= 1 UseB2=F ITyADJ=14
 ICtDFT=  3500011 ScaDFX=  1.000000  1.000000  1.000000  1.000000
 FoFCou: FMM=F IPFlag=           0 FMFlag=      100000 FMFlg1=           0
         NFxFlg=           0 DoJE=T BraDBF=F KetDBF=T FulRan=T
         wScrn=  0.000000 ICntrl=       500 IOpCl=  0 I1Cent=   200000004 NGrid=           0
         NMat0=    1 NMatS0=      1 NMatT0=    0 NMatD0=    1 NMtDS0=    0 NMtDT0=    0
 Petite list used in FoFCou.
 Harris En= -1455.50348982431    
 JPrj=0 DoOrth=F DoCkMO=F.
 Leave Link  401 at Mon Feb 22 21:16:46 2021, MaxMem=   104857600 cpu:              25.6 elap:               0.8
 (Enter /sw/arch/RedHatEnterpriseServer7/EB_production/2019/software/Gaussian/g16.c01/l502.exe)
 Integral symmetry usage will be decided dynamically.
 Closed shell SCF:
 Using DIIS extrapolation, IDIIS=  1040.
 NGot=   104857600 LenX=   104468996 LenY=   104283655
 Requested convergence on RMS density matrix=1.00D-08 within 128 cycles.
 Requested convergence on MAX density matrix=1.00D-06.
 Requested convergence on             energy=1.00D-06.
 No special actions if energy rises.
 Fock matrices will be formed incrementally for  20 cycles.

 Cycle   1  Pass 1  IDiag  1:
 FoFJK:  IHMeth= 1 ICntrl=     500 DoSepK=F KAlg= 0 I1Cent=           0 FoldK=F
 IRaf= 830000000 NMat=       1 IRICut=       1 DoRegI=T DoRafI=F ISym2E= 0 IDoP0=0 IntGTp=1.
 FoFCou: FMM=F IPFlag=           0 FMFlag=      100000 FMFlg1=           0
         NFxFlg=           0 DoJE=T BraDBF=F KetDBF=F FulRan=T
         wScrn=  0.000000 ICntrl=       500 IOpCl=  0 I1Cent=           0 NGrid=           0
         NMat0=    1 NMatS0=      1 NMatT0=    0 NMatD0=    1 NMtDS0=    0 NMtDT0=    0
 Symmetry not used in FoFCou.
 Inv3:  Mode=1 IEnd=    17554683.
 Iteration    1 A*A^-1 deviation from unit magnitude is 3.55D-15 for   1896.
 Iteration    1 A*A^-1 deviation from orthogonality  is 2.08D-15 for   2167    348.
 Iteration    1 A^-1*A deviation from unit magnitude is 3.55D-15 for   1896.
 Iteration    1 A^-1*A deviation from orthogonality  is 2.80D-15 for   1930   1467.
 E= -1454.87554233424    
 DIIS: error= 2.33D-02 at cycle   1 NSaved=   1.
 NSaved= 1 IEnMin= 1 EnMin= -1454.87554233424     IErMin= 1 ErrMin= 2.33D-02
 ErrMax= 2.33D-02  0.00D+00 EMaxC= 1.00D-01 BMatC= 4.32D-01 BMatP= 4.32D-01
 IDIUse=3 WtCom= 7.67D-01 WtEn= 2.33D-01
 Coeff-Com:  0.100D+01
 Coeff-En:   0.100D+01
 Coeff:      0.100D+01
 Gap=     0.267 Goal=   None    Shift=    0.000
 GapD=    0.267 DampG=1.000 DampE=0.500 DampFc=0.5000 IDamp=-1.
 Damping current iteration by 5.00D-01
 RMSDP=8.55D-03 MaxDP=3.96D-01              OVMax= 3.91D-01

 Cycle   2  Pass 1  IDiag  1:
 RMSU=  4.27D-03    CP:  9.92D-01
 E= -1454.96280965531     Delta-E=       -0.087267321073 Rises=F Damp=T
 DIIS: error= 1.40D-02 at cycle   2 NSaved=   2.
 NSaved= 2 IEnMin= 2 EnMin= -1454.96280965531     IErMin= 2 ErrMin= 1.40D-02
 ErrMax= 1.40D-02  0.00D+00 EMaxC= 1.00D-01 BMatC= 7.03D-02 BMatP= 4.32D-01
 IDIUse=3 WtCom= 8.60D-01 WtEn= 1.40D-01
 Coeff-Com:  0.239D+00 0.761D+00
 Coeff-En:   0.413D+00 0.587D+00
 Coeff:      0.263D+00 0.737D+00
 Gap=     0.204 Goal=   None    Shift=    0.000
 RMSDP=3.51D-03 MaxDP=2.15D-01 DE=-8.73D-02 OVMax= 3.63D-01

 Cycle   3  Pass 1  IDiag  1:
 RMSU=  2.11D-03    CP:  9.53D-01  3.54D-01
 E= -1455.29850005023     Delta-E=       -0.335690394918 Rises=F Damp=F
 DIIS: error= 1.14D-02 at cycle   3 NSaved=   3.
 NSaved= 3 IEnMin= 3 EnMin= -1455.29850005023     IErMin= 3 ErrMin= 1.14D-02
 ErrMax= 1.14D-02  0.00D+00 EMaxC= 1.00D-01 BMatC= 2.96D-02 BMatP= 7.03D-02
 IDIUse=3 WtCom= 8.86D-01 WtEn= 1.14D-01
 Coeff-Com:  0.868D-01 0.395D+00 0.518D+00
 Coeff-En:   0.000D+00 0.000D+00 0.100D+01
 Coeff:      0.769D-01 0.350D+00 0.573D+00
 Gap=     0.114 Goal=   None    Shift=    0.000
 RMSDP=1.30D-03 MaxDP=7.59D-02 DE=-3.36D-01 OVMax= 1.04D-01

 Cycle   4  Pass 1  IDiag  1:
 RMSU=  1.03D-03    CP:  9.67D-01  3.99D-01  6.41D-01
 E= -1455.31315214464     Delta-E=       -0.014652094409 Rises=F Damp=F
 DIIS: error= 7.95D-03 at cycle   4 NSaved=   4.
 NSaved= 4 IEnMin= 4 EnMin= -1455.31315214464     IErMin= 4 ErrMin= 7.95D-03
 ErrMax= 7.95D-03  0.00D+00 EMaxC= 1.00D-01 BMatC= 1.72D-02 BMatP= 2.96D-02
 IDIUse=3 WtCom= 9.21D-01 WtEn= 7.95D-02
 Coeff-Com:  0.134D-01 0.106D+00 0.419D+00 0.461D+00
 Coeff-En:   0.000D+00 0.000D+00 0.390D+00 0.610D+00
 Coeff:      0.123D-01 0.977D-01 0.417D+00 0.473D+00
 Gap=     0.121 Goal=   None    Shift=    0.000
 RMSDP=6.58D-04 MaxDP=5.68D-02 DE=-1.47D-02 OVMax= 4.69D-02

 Cycle   5  Pass 1  IDiag  1:
 RMSU=  3.55D-04    CP:  9.53D-01  3.97D-01  8.14D-01  6.43D-01
 E= -1455.33095591379     Delta-E=       -0.017803769151 Rises=F Damp=F
 DIIS: error= 7.57D-04 at cycle   5 NSaved=   5.
 NSaved= 5 IEnMin= 5 EnMin= -1455.33095591379     IErMin= 5 ErrMin= 7.57D-04
 ErrMax= 7.57D-04  0.00D+00 EMaxC= 1.00D-01 BMatC= 6.04D-04 BMatP= 1.72D-02
 IDIUse=3 WtCom= 9.92D-01 WtEn= 7.57D-03
 Coeff-Com:  0.237D-02 0.268D-01 0.187D+00 0.259D+00 0.524D+00
 Coeff-En:   0.000D+00 0.000D+00 0.000D+00 0.000D+00 0.100D+01
 Coeff:      0.236D-02 0.266D-01 0.186D+00 0.257D+00 0.528D+00
 Gap=     0.122 Goal=   None    Shift=    0.000
 RMSDP=1.29D-04 MaxDP=9.96D-03 DE=-1.78D-02 OVMax= 1.00D-02

 Cycle   6  Pass 1  IDiag  1:
 RMSU=  6.07D-05    CP:  9.55D-01  3.90D-01  8.10D-01  6.25D-01  7.08D-01
 E= -1455.33146083493     Delta-E=       -0.000504921144 Rises=F Damp=F
 DIIS: error= 3.79D-04 at cycle   6 NSaved=   6.
 NSaved= 6 IEnMin= 6 EnMin= -1455.33146083493     IErMin= 6 ErrMin= 3.79D-04
 ErrMax= 3.79D-04  0.00D+00 EMaxC= 1.00D-01 BMatC= 1.10D-04 BMatP= 6.04D-04
 IDIUse=3 WtCom= 9.96D-01 WtEn= 3.79D-03
 Coeff-Com:  0.100D-03 0.687D-02 0.774D-01 0.120D+00 0.345D+00 0.451D+00
 Coeff-En:   0.000D+00 0.000D+00 0.000D+00 0.000D+00 0.149D+00 0.851D+00
 Coeff:      0.100D-03 0.684D-02 0.771D-01 0.119D+00 0.344D+00 0.452D+00
 Gap=     0.121 Goal=   None    Shift=    0.000
 RMSDP=5.25D-05 MaxDP=2.48D-03 DE=-5.05D-04 OVMax= 4.64D-03

 Cycle   7  Pass 1  IDiag  1:
 RMSU=  3.87D-05    CP:  9.56D-01  3.93D-01  8.04D-01  6.32D-01  6.63D-01
                    CP:  6.59D-01
 E= -1455.33156357929     Delta-E=       -0.000102744358 Rises=F Damp=F
 DIIS: error= 1.65D-04 at cycle   7 NSaved=   7.
 NSaved= 7 IEnMin= 7 EnMin= -1455.33156357929     IErMin= 7 ErrMin= 1.65D-04
 ErrMax= 1.65D-04  0.00D+00 EMaxC= 1.00D-01 BMatC= 1.03D-05 BMatP= 1.10D-04
 IDIUse=3 WtCom= 9.98D-01 WtEn= 1.65D-03
 Coeff-Com: -0.116D-03 0.272D-02 0.367D-01 0.590D-01 0.185D+00 0.294D+00
 Coeff-Com:  0.422D+00
 Coeff-En:   0.000D+00 0.000D+00 0.000D+00 0.000D+00 0.000D+00 0.405D-01
 Coeff-En:   0.959D+00
 Coeff:     -0.116D-03 0.272D-02 0.366D-01 0.589D-01 0.185D+00 0.294D+00
 Coeff:      0.423D+00
 Gap=     0.121 Goal=   None    Shift=    0.000
 RMSDP=1.57D-05 MaxDP=1.08D-03 DE=-1.03D-04 OVMax= 2.18D-03

 Cycle   8  Pass 1  IDiag  1:
 RMSU=  1.19D-05    CP:  9.56D-01  3.93D-01  8.03D-01  6.35D-01  6.58D-01
                    CP:  7.01D-01  8.03D-01
 E= -1455.33157299236     Delta-E=       -0.000009413066 Rises=F Damp=F
 DIIS: error= 7.33D-05 at cycle   8 NSaved=   8.
 NSaved= 8 IEnMin= 8 EnMin= -1455.33157299236     IErMin= 8 ErrMin= 7.33D-05
 ErrMax= 7.33D-05  0.00D+00 EMaxC= 1.00D-01 BMatC= 1.60D-06 BMatP= 1.03D-05
 IDIUse=1 WtCom= 1.00D+00 WtEn= 0.00D+00
 Coeff-Com: -0.114D-03 0.278D-03 0.773D-02 0.136D-01 0.489D-01 0.995D-01
 Coeff-Com:  0.298D+00 0.532D+00
 Coeff:     -0.114D-03 0.278D-03 0.773D-02 0.136D-01 0.489D-01 0.995D-01
 Coeff:      0.298D+00 0.532D+00
 Gap=     0.122 Goal=   None    Shift=    0.000
 RMSDP=6.48D-06 MaxDP=4.85D-04 DE=-9.41D-06 OVMax= 8.01D-04

 Cycle   9  Pass 1  IDiag  1:
 RMSU=  4.63D-06    CP:  9.56D-01  3.93D-01  8.04D-01  6.34D-01  6.62D-01
                    CP:  7.02D-01  7.95D-01  7.35D-01
 E= -1455.33157448708     Delta-E=       -0.000001494720 Rises=F Damp=F
 DIIS: error= 2.08D-05 at cycle   9 NSaved=   9.
 NSaved= 9 IEnMin= 9 EnMin= -1455.33157448708     IErMin= 9 ErrMin= 2.08D-05
 ErrMax= 2.08D-05  0.00D+00 EMaxC= 1.00D-01 BMatC= 2.09D-07 BMatP= 1.60D-06
 IDIUse=1 WtCom= 1.00D+00 WtEn= 0.00D+00
 Coeff-Com: -0.508D-04-0.552D-04 0.143D-02 0.295D-02 0.132D-01 0.345D-01
 Coeff-Com:  0.154D+00 0.353D+00 0.440D+00
 Coeff:     -0.508D-04-0.552D-04 0.143D-02 0.295D-02 0.132D-01 0.345D-01
 Coeff:      0.154D+00 0.353D+00 0.440D+00
 Gap=     0.121 Goal=   None    Shift=    0.000
 RMSDP=2.88D-06 MaxDP=1.15D-04 DE=-1.49D-06 OVMax= 2.38D-04

 Cycle  10  Pass 1  IDiag  1:
 RMSU=  1.56D-06    CP:  9.56D-01  3.93D-01  8.04D-01  6.34D-01  6.62D-01
                    CP:  7.04D-01  8.33D-01  7.54D-01  6.76D-01
 E= -1455.33157469426     Delta-E=       -0.000000207177 Rises=F Damp=F
 DIIS: error= 7.27D-06 at cycle  10 NSaved=  10.
 NSaved=10 IEnMin=10 EnMin= -1455.33157469426     IErMin=10 ErrMin= 7.27D-06
 ErrMax= 7.27D-06  0.00D+00 EMaxC= 1.00D-01 BMatC= 2.89D-08 BMatP= 2.09D-07
 IDIUse=1 WtCom= 1.00D+00 WtEn= 0.00D+00
 Coeff-Com: -0.210D-04-0.583D-04 0.171D-04 0.313D-03 0.291D-02 0.114D-01
 Coeff-Com:  0.706D-01 0.179D+00 0.304D+00 0.432D+00
 Coeff:     -0.210D-04-0.583D-04 0.171D-04 0.313D-03 0.291D-02 0.114D-01
 Coeff:      0.706D-01 0.179D+00 0.304D+00 0.432D+00
 Gap=     0.121 Goal=   None    Shift=    0.000
 RMSDP=9.45D-07 MaxDP=8.37D-05 DE=-2.07D-07 OVMax= 8.10D-05

 Cycle  11  Pass 1  IDiag  1:
 RMSU=  4.04D-07    CP:  9.56D-01  3.93D-01  8.03D-01  6.34D-01  6.61D-01
                    CP:  7.06D-01  8.37D-01  7.73D-01  6.76D-01  6.96D-01
 E= -1455.33157472286     Delta-E=       -0.000000028601 Rises=F Damp=F
 DIIS: error= 1.88D-06 at cycle  11 NSaved=  11.
 NSaved=11 IEnMin=11 EnMin= -1455.33157472286     IErMin=11 ErrMin= 1.88D-06
 ErrMax= 1.88D-06  0.00D+00 EMaxC= 1.00D-01 BMatC= 1.95D-09 BMatP= 2.89D-08
 IDIUse=1 WtCom= 1.00D+00 WtEn= 0.00D+00
 Coeff-Com: -0.866D-05-0.231D-04-0.126D-03-0.115D-03 0.287D-03 0.282D-02
 Coeff-Com:  0.233D-01 0.636D-01 0.130D+00 0.260D+00 0.521D+00
 Coeff:     -0.866D-05-0.231D-04-0.126D-03-0.115D-03 0.287D-03 0.282D-02
 Coeff:      0.233D-01 0.636D-01 0.130D+00 0.260D+00 0.521D+00
 Gap=     0.121 Goal=   None    Shift=    0.000
 RMSDP=2.30D-07 MaxDP=1.38D-05 DE=-2.86D-08 OVMax= 1.46D-05

 Cycle  12  Pass 1  IDiag  1:
 RMSU=  1.46D-07    CP:  9.56D-01  3.93D-01  8.04D-01  6.34D-01  6.61D-01
                    CP:  7.07D-01  8.37D-01  7.71D-01  6.81D-01  6.85D-01
                    CP:  7.92D-01
 E= -1455.33157472461     Delta-E=       -0.000000001758 Rises=F Damp=F
 DIIS: error= 8.25D-07 at cycle  12 NSaved=  12.
 NSaved=12 IEnMin=12 EnMin= -1455.33157472461     IErMin=12 ErrMin= 8.25D-07
 ErrMax= 8.25D-07  0.00D+00 EMaxC= 1.00D-01 BMatC= 2.66D-10 BMatP= 1.95D-09
 IDIUse=1 WtCom= 1.00D+00 WtEn= 0.00D+00
 Coeff-Com: -0.363D-05-0.623D-05-0.751D-04-0.976D-04-0.109D-03 0.575D-03
 Coeff-Com:  0.703D-02 0.207D-01 0.499D-01 0.119D+00 0.329D+00 0.474D+00
 Coeff:     -0.363D-05-0.623D-05-0.751D-04-0.976D-04-0.109D-03 0.575D-03
 Coeff:      0.703D-02 0.207D-01 0.499D-01 0.119D+00 0.329D+00 0.474D+00
 Gap=     0.121 Goal=   None    Shift=    0.000
 RMSDP=9.18D-08 MaxDP=2.75D-06 DE=-1.76D-09 OVMax= 6.53D-06

 Cycle  13  Pass 1  IDiag  1:
 RMSU=  5.62D-08    CP:  9.56D-01  3.93D-01  8.04D-01  6.34D-01  6.61D-01
                    CP:  7.06D-01  8.37D-01  7.71D-01  6.87D-01  7.03D-01
                    CP:  7.69D-01  6.76D-01
 E= -1455.33157472485     Delta-E=       -0.000000000239 Rises=F Damp=F
 DIIS: error= 2.53D-07 at cycle  13 NSaved=  13.
 NSaved=13 IEnMin=13 EnMin= -1455.33157472485     IErMin=13 ErrMin= 2.53D-07
 ErrMax= 2.53D-07  0.00D+00 EMaxC= 1.00D-01 BMatC= 2.56D-11 BMatP= 2.66D-10
 IDIUse=1 WtCom= 1.00D+00 WtEn= 0.00D+00
 Coeff-Com: -0.128D-05-0.559D-06-0.311D-04-0.482D-04-0.112D-03-0.358D-04
 Coeff-Com:  0.115D-02 0.408D-02 0.132D-01 0.376D-01 0.125D+00 0.279D+00
 Coeff-Com:  0.540D+00
 Coeff:     -0.128D-05-0.559D-06-0.311D-04-0.482D-04-0.112D-03-0.358D-04
 Coeff:      0.115D-02 0.408D-02 0.132D-01 0.376D-01 0.125D+00 0.279D+00
 Coeff:      0.540D+00
 Gap=     0.121 Goal=   None    Shift=    0.000
 RMSDP=2.76D-08 MaxDP=9.69D-07 DE=-2.39D-10 OVMax= 1.61D-06

 Cycle  14  Pass 1  IDiag  1:
 RMSU=  1.78D-08    CP:  9.56D-01  3.93D-01  8.04D-01  6.34D-01  6.61D-01
                    CP:  7.06D-01  8.37D-01  7.72D-01  6.88D-01  7.02D-01
                    CP:  7.81D-01  6.96D-01  7.34D-01
 E= -1455.33157472488     Delta-E=       -0.000000000032 Rises=F Damp=F
 DIIS: error= 7.10D-08 at cycle  14 NSaved=  14.
 NSaved=14 IEnMin=14 EnMin= -1455.33157472488     IErMin=14 ErrMin= 7.10D-08
 ErrMax= 7.10D-08  0.00D+00 EMaxC= 1.00D-01 BMatC= 3.10D-12 BMatP= 2.56D-11
 IDIUse=1 WtCom= 1.00D+00 WtEn= 0.00D+00
 Coeff-Com: -0.404D-06 0.314D-06-0.106D-04-0.187D-04-0.571D-04-0.884D-04
 Coeff-Com: -0.968D-04 0.174D-03 0.243D-02 0.944D-02 0.383D-01 0.113D+00
 Coeff-Com:  0.319D+00 0.518D+00
 Coeff:     -0.404D-06 0.314D-06-0.106D-04-0.187D-04-0.571D-04-0.884D-04
 Coeff:     -0.968D-04 0.174D-03 0.243D-02 0.944D-02 0.383D-01 0.113D+00
 Coeff:      0.319D+00 0.518D+00
 Gap=     0.121 Goal=   None    Shift=    0.000
 RMSDP=8.34D-09 MaxDP=4.87D-07 DE=-3.23D-11 OVMax= 3.88D-07

 Error on total polarization charges =  0.01991
 SCF Done:  E(RB-P86) =  -1455.33157472     A.U. after   14 cycles
            NFock= 14  Conv=0.83D-08     -V/T= 2.0034
 KE= 1.450360821527D+03 PE=-6.166243909436D+03 EE= 1.890343339024D+03
 Leave Link  502 at Mon Feb 22 21:17:28 2021, MaxMem=   104857600 cpu:            1320.6 elap:              42.1
 (Enter /sw/arch/RedHatEnterpriseServer7/EB_production/2019/software/Gaussian/g16.c01/l601.exe)
 Copying SCF densities to generalized density rwf, IOpCl= 0 IROHF=0.

 **********************************************************************

            Population analysis using the SCF Density.

 **********************************************************************

 Orbital symmetries:
       Occupied  (A) (A) (A) (A) (A) (A) (A) (A) (A) (A) (A) (A)
                 (A) (A) (A) (A) (A) (A) (A) (A) (A) (A) (A) (A)
                 (A) (A) (A) (A) (A) (A) (A) (A) (A) (A) (A) (A)
                 (A) (A) (A) (A) (A) (A) (A) (A) (A) (A) (A) (A)
                 (A) (A) (A) (A) (A) (A) (A) (A) (A) (A) (A) (A)
                 (A) (A) (A) (A) (A) (A) (A) (A) (A)
       Virtual   (A) (A) (A) (A) (A) (A) (A) (A) (A) (A) (A) (A)
                 (A) (A) (A) (A) (A) (A) (A) (A) (A) (A) (A) (A)
                 (A) (A) (A) (A) (A) (A) (A) (A) (A) (A) (A) (A)
                 (A) (A) (A) (A) (A) (A) (A) (A) (A) (A) (A) (A)
                 (A) (A) (A) (A) (A) (A) (A) (A) (A) (A) (A) (A)
                 (A) (A) (A) (A) (A) (A) (A) (A) (A) (A) (A) (A)
                 (A) (A) (A) (A) (A) (A) (A) (A) (A) (A) (A) (A)
                 (A) (A) (A) (A) (A) (A) (A) (A) (A) (A) (A) (A)
                 (A) (A) (A) (A) (A) (A) (A) (A) (A) (A) (A) (A)
                 (A) (A) (A) (A) (A) (A) (A) (A) (A) (A) (A) (A)
                 (A) (A) (A) (A) (A) (A) (A) (A) (A) (A) (A) (A)
                 (A) (A) (A) (A) (A) (A) (A) (A) (A) (A) (A) (A)
                 (A) (A) (A) (A) (A) (A) (A) (A) (A) (A) (A) (A)
                 (A) (A) (A) (A) (A) (A) (A) (A) (A) (A) (A) (A)
                 (A) (A) (A) (A) (A) (A) (A) (A) (A) (A) (A) (A)
                 (A) (A) (A) (A) (A) (A) (A) (A) (A) (A) (A) (A)
                 (A) (A) (A) (A) (A) (A) (A) (A) (A) (A) (A) (A)
                 (A) (A) (A) (A) (A) (A) (A) (A) (A) (A) (A) (A)
                 (A) (A) (A) (A) (A) (A) (A) (A) (A) (A) (A) (A)
                 (A) (A) (A) (A) (A) (A) (A) (A) (A) (A) (A) (A)
                 (A) (A) (A) (A) (A) (A) (A) (A) (A) (A) (A) (A)
                 (A) (A) (A) (A) (A) (A) (A) (A) (A) (A) (A) (A)
                 (A) (A) (A) (A) (A) (A) (A) (A) (A) (A) (A) (A)
                 (A) (A) (A) (A) (A) (A) (A) (A) (A) (A) (A) (A)
                 (A) (A) (A) (A) (A) (A) (A) (A) (A) (A) (A) (A)
                 (A) (A) (A) (A) (A) (A) (A) (A) (A) (A) (A) (A)
                 (A) (A) (A) (A) (A) (A) (A) (A) (A) (A) (A) (A)
                 (A) (A) (A) (A) (A) (A) (A) (A) (A) (A) (A) (A)
                 (A) (A) (A) (A) (A) (A) (A) (A)
 The electronic state is 1-A.
 Alpha  occ. eigenvalues -- -100.76436 -88.16395 -14.00612  -9.96766  -9.93250
 Alpha  occ. eigenvalues --   -9.93113  -9.93016  -9.92667  -9.92633  -9.92409
 Alpha  occ. eigenvalues --   -9.91260  -9.90990  -9.90816  -9.90654  -9.90617
 Alpha  occ. eigenvalues --   -9.90323  -9.89742  -9.20312  -7.71631  -7.02871
 Alpha  occ. eigenvalues --   -7.01780  -7.01679  -5.73936  -5.73485  -5.73136
 Alpha  occ. eigenvalues --   -0.84808  -0.82972  -0.80362  -0.77170  -0.72628
 Alpha  occ. eigenvalues --   -0.70893  -0.69172  -0.67368  -0.65374  -0.62449
 Alpha  occ. eigenvalues --   -0.58868  -0.56604  -0.55768  -0.53544  -0.52011
 Alpha  occ. eigenvalues --   -0.47671  -0.46354  -0.45760  -0.44110  -0.43749
 Alpha  occ. eigenvalues --   -0.42420  -0.41812  -0.40886  -0.39829  -0.38816
 Alpha  occ. eigenvalues --   -0.37989  -0.37699  -0.36791  -0.35922  -0.35042
 Alpha  occ. eigenvalues --   -0.34209  -0.33112  -0.32393  -0.32207  -0.31401
 Alpha  occ. eigenvalues --   -0.31077  -0.30745  -0.28954  -0.28064  -0.23995
 Alpha  occ. eigenvalues --   -0.22565  -0.22410  -0.20335  -0.18126
 Alpha virt. eigenvalues --   -0.05978  -0.05845  -0.05348  -0.00322   0.00743
 Alpha virt. eigenvalues --    0.00888   0.02733   0.03588   0.04534   0.05579
 Alpha virt. eigenvalues --    0.06026   0.06732   0.06787   0.07481   0.07846
 Alpha virt. eigenvalues --    0.08497   0.08971   0.09652   0.10312   0.10465
 Alpha virt. eigenvalues --    0.11211   0.11591   0.12487   0.13453   0.13606
 Alpha virt. eigenvalues --    0.14386   0.14864   0.15018   0.15614   0.16382
 Alpha virt. eigenvalues --    0.17161   0.18209   0.18492   0.19205   0.19643
 Alpha virt. eigenvalues --    0.19892   0.20314   0.21139   0.21394   0.22447
 Alpha virt. eigenvalues --    0.22545   0.23430   0.23876   0.24556   0.24798
 Alpha virt. eigenvalues --    0.25003   0.25704   0.26287   0.27064   0.27186
 Alpha virt. eigenvalues --    0.28172   0.28806   0.29159   0.29445   0.30452
 Alpha virt. eigenvalues --    0.31172   0.31605   0.31943   0.32521   0.33096
 Alpha virt. eigenvalues --    0.33252   0.34285   0.34534   0.35397   0.35732
 Alpha virt. eigenvalues --    0.36722   0.37255   0.37800   0.38316   0.39235
 Alpha virt. eigenvalues --    0.39596   0.39973   0.40831   0.41314   0.41755
 Alpha virt. eigenvalues --    0.41854   0.42201   0.42626   0.43033   0.43339
 Alpha virt. eigenvalues --    0.43492   0.44182   0.44539   0.44786   0.45210
 Alpha virt. eigenvalues --    0.45635   0.46711   0.47063   0.47172   0.48538
 Alpha virt. eigenvalues --    0.49559   0.50178   0.50461   0.51662   0.52293
 Alpha virt. eigenvalues --    0.53047   0.55077   0.55831   0.56406   0.56835
 Alpha virt. eigenvalues --    0.58520   0.58839   0.59811   0.60700   0.61463
 Alpha virt. eigenvalues --    0.62519   0.63693   0.64263   0.66781   0.67007
 Alpha virt. eigenvalues --    0.68080   0.69488   0.70248   0.71586   0.71746
 Alpha virt. eigenvalues --    0.73022   0.73954   0.74993   0.76553   0.77215
 Alpha virt. eigenvalues --    0.79176   0.82029   0.83085   0.85967   0.88004
 Alpha virt. eigenvalues --    0.91577   0.92686   0.93363   0.94515   1.10051
 Alpha virt. eigenvalues --    1.12247   1.13726   1.14618   1.15996   1.16940
 Alpha virt. eigenvalues --    1.17279   1.17592   1.18147   1.18841   1.20837
 Alpha virt. eigenvalues --    1.21136   1.21508   1.22399   1.22678   1.23866
 Alpha virt. eigenvalues --    1.25254   1.25750   1.26043   1.26738   1.26925
 Alpha virt. eigenvalues --    1.28453   1.29826   1.30871   1.31671   1.32371
 Alpha virt. eigenvalues --    1.32550   1.33787   1.34530   1.35537   1.36245
 Alpha virt. eigenvalues --    1.37266   1.37629   1.37835   1.38156   1.38457
 Alpha virt. eigenvalues --    1.39133   1.40170   1.40953   1.41603   1.42898
 Alpha virt. eigenvalues --    1.43451   1.43636   1.44449   1.44670   1.45677
 Alpha virt. eigenvalues --    1.46468   1.46980   1.48220   1.49129   1.49706
 Alpha virt. eigenvalues --    1.50604   1.51020   1.51298   1.52316   1.53116
 Alpha virt. eigenvalues --    1.54014   1.54315   1.55550   1.56967   1.58510
 Alpha virt. eigenvalues --    1.59677   1.60422   1.61620   1.62495   1.62822
 Alpha virt. eigenvalues --    1.64752   1.68881   1.69758   1.69920   1.72033
 Alpha virt. eigenvalues --    1.72114   1.72597   1.73328   1.73677   1.74021
 Alpha virt. eigenvalues --    1.74680   1.76420   1.76630   1.76907   1.77976
 Alpha virt. eigenvalues --    1.79174   1.80441   1.81683   1.82109   1.83186
 Alpha virt. eigenvalues --    1.84405   1.84507   1.84880   1.85641   1.86826
 Alpha virt. eigenvalues --    1.88180   1.89983   1.90268   1.90695   1.93036
 Alpha virt. eigenvalues --    1.93676   1.95233   1.95238   1.98275   1.98739
 Alpha virt. eigenvalues --    2.01557   2.02743   2.03769   2.04879   2.07074
 Alpha virt. eigenvalues --    2.08331   2.10317   2.11865   2.13470   2.14562
 Alpha virt. eigenvalues --    2.14985   2.16162   2.18774   2.19448   2.20510
 Alpha virt. eigenvalues --    2.20838   2.22038   2.22545   2.23448   2.24232
 Alpha virt. eigenvalues --    2.25165   2.26763   2.27229   2.28504   2.29014
 Alpha virt. eigenvalues --    2.29384   2.32051   2.33523   2.33988   2.35823
 Alpha virt. eigenvalues --    2.37310   2.38141   2.39450   2.41304   2.42980
 Alpha virt. eigenvalues --    2.43677   2.44490   2.45376   2.46438   2.47233
 Alpha virt. eigenvalues --    2.49911   2.50297   2.51718   2.52246   2.52331
 Alpha virt. eigenvalues --    2.54761   2.56451   2.56862   2.58294   2.59570
 Alpha virt. eigenvalues --    2.60187   2.62198   2.63767   2.64963   2.66519
 Alpha virt. eigenvalues --    2.66879   2.68435   2.70493   2.70889   2.75357
 Alpha virt. eigenvalues --    2.75660   2.77306   2.77817   2.80529   2.82741
 Alpha virt. eigenvalues --    2.85591   2.89203   2.90650   2.98011   3.00917
 Alpha virt. eigenvalues --    3.01871   3.02580   3.03865   3.04915   3.06007
 Alpha virt. eigenvalues --    3.06970   3.07862   3.10249   3.12094   3.13374
 Alpha virt. eigenvalues --    3.19299   3.23009   3.24612   3.25853   3.28172
 Alpha virt. eigenvalues --    3.30225   3.31769   3.32527   3.34655   3.35964
 Alpha virt. eigenvalues --    3.38737   3.39258   3.43926   3.53790   3.64842
 Alpha virt. eigenvalues --    3.68231   3.70425  18.71509  21.10010  21.21101
 Alpha virt. eigenvalues --   21.54210  21.55734  21.68083  21.73683  21.75848
 Alpha virt. eigenvalues --   21.82513  21.83988  21.84378  21.88130  21.89603
 Alpha virt. eigenvalues --   21.94847  21.98396  25.20561  31.70548
          Condensed to atoms (all electrons):
               1          2          3          4          5          6
     1  Cl  16.885806   0.437721  -0.117402   0.026725  -0.007110   0.033972
     2  C    0.437721   6.292003  -0.031246   0.228996  -0.301433   0.303097
     3  C   -0.117402  -0.031246   5.435465   0.178932   0.171189  -0.337842
     4  C    0.026725   0.228996   0.178932   5.267287   0.232533   0.207520
     5  C   -0.007110  -0.301433   0.171189   0.232533   5.314526   0.068974
     6  C    0.033972   0.303097  -0.337842   0.207520   0.068974   5.752526
     7  C   -0.202963  -0.504305   0.348086  -0.337497   0.308246  -0.196551
     8  C   -0.010437  -0.168721   0.038566  -0.008189   0.031641  -0.096980
     9  N   -0.015923   0.013952   0.005624  -0.001669   0.001880  -0.023879
    10  C    0.000180  -0.000723   0.000013  -0.000012   0.000151  -0.000161
    11  C    0.000525   0.000597   0.000054  -0.000009   0.000010  -0.000221
    12  C   -0.000670  -0.000733   0.000010   0.000003  -0.000007  -0.000055
    13  S   -0.000000  -0.000010  -0.000000   0.000000  -0.000000   0.000007
    14  C    0.000001   0.000011  -0.000001   0.000001  -0.000000   0.000004
    15  C   -0.000022   0.000013  -0.000007  -0.000011   0.000017  -0.000108
    16  C    0.000062   0.003564   0.000077  -0.000209   0.000113  -0.003678
    17  C    0.002329  -0.012234  -0.001037   0.000574  -0.002467   0.018121
    18  H    0.000186  -0.107796   0.448355  -0.067221   0.021655  -0.010883
    19  H   -0.000322   0.026119  -0.074793   0.453862  -0.073809   0.022794
    20  H    0.000001  -0.003779   0.019300  -0.074691   0.448951  -0.071630
    21  H    0.000196   0.028928  -0.004425   0.015290  -0.062507   0.452309
    22  H    0.008341  -0.020242  -0.001260   0.000632  -0.002152   0.013400
    23  H    0.000187   0.016242   0.001163  -0.001257   0.005448  -0.035604
    24  H   -0.000016   0.000029   0.000068  -0.000017   0.000060  -0.000553
    25  H    0.001671   0.000118  -0.000091   0.000010  -0.000021   0.000091
    26  H    0.000014   0.000022   0.000000  -0.000000   0.000000  -0.000007
    27  H    0.000421  -0.000015   0.000016  -0.000002   0.000003  -0.000013
    28  H   -0.000000   0.000000  -0.000000   0.000000  -0.000000   0.000000
    29  H   -0.000001  -0.000013   0.000001  -0.000004   0.000003   0.000001
    30  H   -0.000150   0.000292   0.000452  -0.000287   0.001058  -0.007451
    31  H    0.000426   0.003383  -0.000318   0.000003   0.000233  -0.000715
               7          8          9         10         11         12
     1  Cl  -0.202963  -0.010437  -0.015923   0.000180   0.000525  -0.000670
     2  C   -0.504305  -0.168721   0.013952  -0.000723   0.000597  -0.000733
     3  C    0.348086   0.038566   0.005624   0.000013   0.000054   0.000010
     4  C   -0.337497  -0.008189  -0.001669  -0.000012  -0.000009   0.000003
     5  C    0.308246   0.031641   0.001880   0.000151   0.000010  -0.000007
     6  C   -0.196551  -0.096980  -0.023879  -0.000161  -0.000221  -0.000055
     7  C    6.501658   0.134286  -0.085457   0.024443  -0.005616   0.001432
     8  C    0.134286   5.459210   0.296898  -0.069625   0.015606  -0.000842
     9  N   -0.085457   0.296898   6.802950   0.268223  -0.025821  -0.019041
    10  C    0.024443  -0.069625   0.268223   5.204496   0.199046   0.033026
    11  C   -0.005616   0.015606  -0.025821   0.199046   5.262480   0.009993
    12  C    0.001432  -0.000842  -0.019041   0.033026   0.009993   5.814055
    13  S    0.000017   0.000154  -0.000556   0.005632  -0.066688   0.427087
    14  C   -0.000040   0.000114  -0.000531  -0.001313   0.004885  -0.140967
    15  C    0.001023  -0.001191   0.005484   0.002244   0.028234  -0.041047
    16  C    0.003240   0.018141  -0.045855   0.005525  -0.057844   0.477661
    17  C    0.002490  -0.088225   0.311706  -0.115995  -0.042148  -0.207610
    18  H    0.043600   0.000657   0.000180  -0.000006   0.000001   0.000000
    19  H   -0.007654  -0.000075  -0.000007   0.000000  -0.000000  -0.000000
    20  H    0.025389  -0.001140   0.000026  -0.000001   0.000000   0.000000
    21  H   -0.081885  -0.012118  -0.000592  -0.000253   0.000009  -0.000005
    22  H   -0.015420   0.385405  -0.051500  -0.006050  -0.000235   0.000323
    23  H   -0.075412   0.437538  -0.045243  -0.007461   0.001260  -0.001272
    24  H   -0.005362  -0.009965  -0.069766   0.373882  -0.018481  -0.028826
    25  H    0.002395  -0.006013  -0.039711   0.398034  -0.029908   0.014015
    26  H   -0.000013  -0.000586   0.006341  -0.054983   0.443865  -0.073347
    27  H   -0.000114  -0.001340   0.001203  -0.025596   0.404830  -0.042424
    28  H   -0.000000  -0.000000   0.000012   0.000050  -0.000496   0.002643
    29  H    0.000112  -0.000068   0.000167   0.000380  -0.001027   0.017370
    30  H   -0.015087   0.013947  -0.060986  -0.027709   0.015583  -0.010186
    31  H    0.018490  -0.025430  -0.044392   0.015526  -0.002775   0.011043
              13         14         15         16         17         18
     1  Cl  -0.000000   0.000001  -0.000022   0.000062   0.002329   0.000186
     2  C   -0.000010   0.000011   0.000013   0.003564  -0.012234  -0.107796
     3  C   -0.000000  -0.000001  -0.000007   0.000077  -0.001037   0.448355
     4  C    0.000000   0.000001  -0.000011  -0.000209   0.000574  -0.067221
     5  C   -0.000000  -0.000000   0.000017   0.000113  -0.002467   0.021655
     6  C    0.000007   0.000004  -0.000108  -0.003678   0.018121  -0.010883
     7  C    0.000017  -0.000040   0.001023   0.003240   0.002490   0.043600
     8  C    0.000154   0.000114  -0.001191   0.018141  -0.088225   0.000657
     9  N   -0.000556  -0.000531   0.005484  -0.045855   0.311706   0.000180
    10  C    0.005632  -0.001313   0.002244   0.005525  -0.115995  -0.000006
    11  C   -0.066688   0.004885   0.028234  -0.057844  -0.042148   0.000001
    12  C    0.427087  -0.140967  -0.041047   0.477661  -0.207610   0.000000
    13  S   15.406186   0.353910  -0.088981  -0.158205   0.038181  -0.000000
    14  C    0.353910   5.162789   0.532526  -0.034060   0.006538  -0.000000
    15  C   -0.088981   0.532526   5.075977   0.378375  -0.074429   0.000000
    16  C   -0.158205  -0.034060   0.378375   5.615471  -0.076081  -0.000004
    17  C    0.038181   0.006538  -0.074429  -0.076081   5.643294  -0.000021
    18  H   -0.000000  -0.000000   0.000000  -0.000004  -0.000021   0.523790
    19  H    0.000000   0.000000   0.000000  -0.000001  -0.000001  -0.007723
    20  H   -0.000000  -0.000000   0.000000   0.000008  -0.000035  -0.000090
    21  H   -0.000000   0.000000  -0.000002  -0.000461   0.000876  -0.000061
    22  H    0.000000  -0.000002   0.000044  -0.000815   0.014649  -0.000064
    23  H   -0.000015  -0.000016   0.000277  -0.000970  -0.027834   0.000028
    24  H    0.000915  -0.000335  -0.000127  -0.010078   0.003249   0.000001
    25  H   -0.000315   0.000063  -0.000041   0.004204   0.008449  -0.000003
    26  H   -0.001263   0.000384  -0.000883   0.017011   0.002968   0.000000
    27  H    0.000248   0.000227  -0.000932  -0.010366   0.003029   0.000001
    28  H   -0.029696   0.388042  -0.027029   0.009866  -0.001887  -0.000000
    29  H    0.010394  -0.050909   0.407752  -0.035245  -0.011904   0.000000
    30  H   -0.000506  -0.000213   0.004202  -0.077960   0.423383   0.000007
    31  H   -0.000545   0.001091  -0.006385  -0.009203   0.381033  -0.000016
              19         20         21         22         23         24
     1  Cl  -0.000322   0.000001   0.000196   0.008341   0.000187  -0.000016
     2  C    0.026119  -0.003779   0.028928  -0.020242   0.016242   0.000029
     3  C   -0.074793   0.019300  -0.004425  -0.001260   0.001163   0.000068
     4  C    0.453862  -0.074691   0.015290   0.000632  -0.001257  -0.000017
     5  C   -0.073809   0.448951  -0.062507  -0.002152   0.005448   0.000060
     6  C    0.022794  -0.071630   0.452309   0.013400  -0.035604  -0.000553
     7  C   -0.007654   0.025389  -0.081885  -0.015420  -0.075412  -0.005362
     8  C   -0.000075  -0.001140  -0.012118   0.385405   0.437538  -0.009965
     9  N   -0.000007   0.000026  -0.000592  -0.051500  -0.045243  -0.069766
    10  C    0.000000  -0.000001  -0.000253  -0.006050  -0.007461   0.373882
    11  C   -0.000000   0.000000   0.000009  -0.000235   0.001260  -0.018481
    12  C   -0.000000   0.000000  -0.000005   0.000323  -0.001272  -0.028826
    13  S    0.000000  -0.000000  -0.000000   0.000000  -0.000015   0.000915
    14  C    0.000000  -0.000000   0.000000  -0.000002  -0.000016  -0.000335
    15  C    0.000000   0.000000  -0.000002   0.000044   0.000277  -0.000127
    16  C   -0.000001   0.000008  -0.000461  -0.000815  -0.000970  -0.010078
    17  C   -0.000001  -0.000035   0.000876   0.014649  -0.027834   0.003249
    18  H   -0.007723  -0.000090  -0.000061  -0.000064   0.000028   0.000001
    19  H    0.520757  -0.007437  -0.000210   0.000005  -0.000005  -0.000000
    20  H   -0.007437   0.523010  -0.005340   0.000011   0.000073   0.000000
    21  H   -0.000210  -0.005340   0.518851   0.000473   0.000804  -0.000003
    22  H    0.000005   0.000011   0.000473   0.526577  -0.037730  -0.003790
    23  H   -0.000005   0.000073   0.000804  -0.037730   0.579416   0.016480
    24  H   -0.000000   0.000000  -0.000003  -0.003790   0.016480   0.639024
    25  H    0.000000  -0.000000  -0.000001   0.007463  -0.002391  -0.046725
    26  H   -0.000000   0.000000   0.000000  -0.000094   0.000182   0.004557
    27  H   -0.000000   0.000000  -0.000000  -0.000146   0.000156   0.008862
    28  H    0.000000  -0.000000   0.000000   0.000000  -0.000000  -0.000006
    29  H   -0.000000   0.000000  -0.000004   0.000000  -0.000013  -0.000016
    30  H   -0.000001   0.000013   0.001045  -0.001320   0.019186   0.017338
    31  H   -0.000005  -0.000000  -0.000078  -0.000156  -0.000968  -0.001563
              25         26         27         28         29         30
     1  Cl   0.001671   0.000014   0.000421  -0.000000  -0.000001  -0.000150
     2  C    0.000118   0.000022  -0.000015   0.000000  -0.000013   0.000292
     3  C   -0.000091   0.000000   0.000016  -0.000000   0.000001   0.000452
     4  C    0.000010  -0.000000  -0.000002   0.000000  -0.000004  -0.000287
     5  C   -0.000021   0.000000   0.000003  -0.000000   0.000003   0.001058
     6  C    0.000091  -0.000007  -0.000013   0.000000   0.000001  -0.007451
     7  C    0.002395  -0.000013  -0.000114  -0.000000   0.000112  -0.015087
     8  C   -0.006013  -0.000586  -0.001340  -0.000000  -0.000068   0.013947
     9  N   -0.039711   0.006341   0.001203   0.000012   0.000167  -0.060986
    10  C    0.398034  -0.054983  -0.025596   0.000050   0.000380  -0.027709
    11  C   -0.029908   0.443865   0.404830  -0.000496  -0.001027   0.015583
    12  C    0.014015  -0.073347  -0.042424   0.002643   0.017370  -0.010186
    13  S   -0.000315  -0.001263   0.000248  -0.029696   0.010394  -0.000506
    14  C    0.000063   0.000384   0.000227   0.388042  -0.050909  -0.000213
    15  C   -0.000041  -0.000883  -0.000932  -0.027029   0.407752   0.004202
    16  C    0.004204   0.017011  -0.010366   0.009866  -0.035245  -0.077960
    17  C    0.008449   0.002968   0.003029  -0.001887  -0.011904   0.423383
    18  H   -0.000003   0.000000   0.000001  -0.000000   0.000000   0.000007
    19  H    0.000000  -0.000000  -0.000000   0.000000  -0.000000  -0.000001
    20  H   -0.000000   0.000000   0.000000  -0.000000   0.000000   0.000013
    21  H   -0.000001   0.000000  -0.000000   0.000000  -0.000004   0.001045
    22  H    0.007463  -0.000094  -0.000146   0.000000   0.000000  -0.001320
    23  H   -0.002391   0.000182   0.000156  -0.000000  -0.000013   0.019186
    24  H   -0.046725   0.004557   0.008862  -0.000006  -0.000016   0.017338
    25  H    0.541316  -0.001346  -0.007565   0.000000  -0.000003  -0.001619
    26  H   -0.001346   0.518708  -0.018661  -0.000000  -0.000014   0.000452
    27  H   -0.007565  -0.018661   0.529558  -0.000001   0.000017   0.000311
    28  H    0.000000  -0.000000  -0.000001   0.460358  -0.002441  -0.000030
    29  H   -0.000003  -0.000014   0.000017  -0.002441   0.509322  -0.001174
    30  H   -0.001619   0.000452   0.000311  -0.000030  -0.001174   0.617212
    31  H    0.000076  -0.000046   0.000014   0.000039   0.001244  -0.047630
              31
     1  Cl   0.000426
     2  C    0.003383
     3  C   -0.000318
     4  C    0.000003
     5  C    0.000233
     6  C   -0.000715
     7  C    0.018490
     8  C   -0.025430
     9  N   -0.044392
    10  C    0.015526
    11  C   -0.002775
    12  C    0.011043
    13  S   -0.000545
    14  C    0.001091
    15  C   -0.006385
    16  C   -0.009203
    17  C    0.381033
    18  H   -0.000016
    19  H   -0.000005
    20  H   -0.000000
    21  H   -0.000078
    22  H   -0.000156
    23  H   -0.000968
    24  H   -0.001563
    25  H    0.000076
    26  H   -0.000046
    27  H    0.000014
    28  H    0.000039
    29  H    0.001244
    30  H   -0.047630
    31  H    0.537347
 Mulliken charges:
               1
     1  Cl  -0.043746
     2  C   -0.203840
     3  C   -0.078950
     4  C   -0.121293
     5  C   -0.157186
     6  C   -0.086484
     7  C    0.118471
     8  C   -0.331220
     9  N   -0.183717
    10  C   -0.220962
    11  C   -0.135711
    12  C   -0.241630
    13  S    0.104051
    14  C   -0.222199
    15  C   -0.194975
    16  C   -0.012284
    17  C   -0.198960
    18  H    0.155427
    19  H    0.148503
    20  H    0.147359
    21  H    0.149164
    22  H    0.183651
    23  H    0.157752
    24  H    0.131165
    25  H    0.157845
    26  H    0.156739
    27  H    0.158278
    28  H    0.200575
    29  H    0.156072
    30  H    0.137828
    31  H    0.170278
[...]
 Alpha virt. eigenvalues --    1.88330   1.89187   1.89583   1.90004   1.90426
 Alpha virt. eigenvalues --    1.91856   1.92555   1.94529   1.97670   1.99318
 Alpha virt. eigenvalues --    2.00333   2.00852   2.02681   2.04886   2.07211
 Alpha virt. eigenvalues --    2.09140   2.09464   2.11221   2.13379   2.14913
 Alpha virt. eigenvalues --    2.16167   2.17476   2.17732   2.19614   2.21099
 Alpha virt. eigenvalues --    2.21532   2.21935   2.22754   2.23529   2.24886
 Alpha virt. eigenvalues --    2.25714   2.26326   2.26777   2.27750   2.28029
 Alpha virt. eigenvalues --    2.29013   2.31921   2.33718   2.34767   2.35891
 Alpha virt. eigenvalues --    2.37125   2.38005   2.38505   2.39977   2.41208
 Alpha virt. eigenvalues --    2.41910   2.42487   2.43346   2.44873   2.46176
 Alpha virt. eigenvalues --    2.47392   2.49064   2.51170   2.51978   2.53223
 Alpha virt. eigenvalues --    2.53591   2.54628   2.55657   2.57506   2.58974
 Alpha virt. eigenvalues --    2.59972   2.60373   2.62337   2.63479   2.65188
 Alpha virt. eigenvalues --    2.66296   2.67408   2.70586   2.70754   2.75300
 Alpha virt. eigenvalues --    2.77139   2.77729   2.78325   2.84046   2.85373
 Alpha virt. eigenvalues --    2.85941   2.89227   2.92131   2.93835   2.94521
 Alpha virt. eigenvalues --    2.97054   3.00961   3.01997   3.03431   3.04400
 Alpha virt. eigenvalues --    3.05869   3.07733   3.07950   3.10452   3.12044
 Alpha virt. eigenvalues --    3.15136   3.18403   3.21588   3.24873   3.26527
 Alpha virt. eigenvalues --    3.28480   3.29843   3.31611   3.33492   3.34326
 Alpha virt. eigenvalues --    3.36620   3.38865   3.45117   3.50150   3.61145
 Alpha virt. eigenvalues --    3.70787   3.72493  18.69025  21.05493  21.15875
 Alpha virt. eigenvalues --   21.49710  21.52294  21.62134  21.74134  21.75337
 Alpha virt. eigenvalues --   21.79793  21.81599  21.82473  21.88234  21.89682
 Alpha virt. eigenvalues --   21.92169  21.97248  25.17072  31.71493
          Condensed to atoms (all electrons):
               1          2          3          4          5          6
     1  Cl  16.941315   0.408458  -0.105739   0.026864  -0.008367   0.038363
     2  C    0.408458   6.390266  -0.090843   0.268505  -0.332105   0.321197
     3  C   -0.105739  -0.090843   5.494166   0.108872   0.204569  -0.384607
     4  C    0.026864   0.268505   0.108872   5.399244   0.159454   0.258786
     5  C   -0.008367  -0.332105   0.204569   0.159454   5.399466  -0.007637
     6  C    0.038363   0.321197  -0.384607   0.258786  -0.007637   5.981585
     7  C   -0.186180  -0.550608   0.384376  -0.384652   0.343934  -0.302937
     8  C   -0.019921  -0.163333   0.048583  -0.012564   0.042083  -0.133468
     9  N   -0.011949   0.034611   0.005372  -0.001922   0.002194  -0.035751
    10  C    0.000223  -0.002741   0.000003  -0.000004   0.000143   0.001352
    11  C    0.000602   0.001145   0.000082  -0.000016   0.000020  -0.000590
    12  C   -0.000602  -0.000957  -0.000016   0.000014  -0.000034   0.000232
    13  S    0.000000  -0.000011  -0.000000   0.000000  -0.000000   0.000011
    14  C    0.000002   0.000006  -0.000002   0.000001   0.000000   0.000015
    15  C   -0.000033  -0.000057   0.000009  -0.000016   0.000024  -0.000240
    16  C   -0.000448   0.002655   0.000199  -0.000375   0.000334  -0.006690
    17  C    0.002341  -0.009085  -0.001620   0.001479  -0.004347   0.032825
    18  H   -0.001828  -0.097987   0.443569  -0.069202   0.021801  -0.011144
    19  H   -0.000269   0.025988  -0.074444   0.448923  -0.073971   0.022903
    20  H    0.000006  -0.004527   0.019844  -0.076385   0.445776  -0.071678
    21  H    0.000087   0.030792  -0.005049   0.016253  -0.063382   0.447317
    22  H    0.009424  -0.025435  -0.001027   0.000482  -0.001897   0.015751
    23  H    0.000399   0.020113   0.001227  -0.001288   0.004609  -0.041608
    24  H   -0.000010   0.000505   0.000056  -0.000016   0.000058  -0.000908
    25  H    0.001428   0.000060  -0.000060   0.000007  -0.000016   0.000006
    26  H    0.000021   0.000041   0.000000  -0.000000   0.000000  -0.000012
    27  H    0.000627   0.000079   0.000020  -0.000002   0.000004  -0.000021
    28  H   -0.000000  -0.000000  -0.000000  -0.000000  -0.000000   0.000000
    29  H   -0.000001  -0.000009   0.000001  -0.000003   0.000001   0.000013
    30  H   -0.000104   0.001623   0.000329  -0.000246   0.000958  -0.009637
    31  H    0.000072   0.002121   0.000263  -0.000435   0.000151  -0.003213
               7          8          9         10         11         12
     1  Cl  -0.186180  -0.019921  -0.011949   0.000223   0.000602  -0.000602
     2  C   -0.550608  -0.163333   0.034611  -0.002741   0.001145  -0.000957
     3  C    0.384376   0.048583   0.005372   0.000003   0.000082  -0.000016
     4  C   -0.384652  -0.012564  -0.001922  -0.000004  -0.000016   0.000014
     5  C    0.343934   0.042083   0.002194   0.000143   0.000020  -0.000034
     6  C   -0.302937  -0.133468  -0.035751   0.001352  -0.000590   0.000232
     7  C    6.649643   0.075474  -0.114481   0.029408  -0.007765   0.003132
     8  C    0.075474   5.600466   0.313226  -0.085831   0.016686  -0.000466
     9  N   -0.114481   0.313226   6.833471   0.229394  -0.026696  -0.025394
    10  C    0.029408  -0.085831   0.229394   5.339318   0.181302   0.051022
    11  C   -0.007765   0.016686  -0.026696   0.181302   5.260893   0.028095
    12  C    0.003132  -0.000466  -0.025394   0.051022   0.028095   5.834554
    13  S    0.000001   0.000187  -0.000814   0.005714  -0.068844   0.438443
    14  C   -0.000015   0.000119  -0.000839  -0.001094   0.004261  -0.154179
    15  C    0.001118  -0.001614   0.003503  -0.000634   0.030400  -0.043627
    16  C    0.012772   0.019794  -0.044742   0.002725  -0.062835   0.445543
    17  C   -0.001290  -0.127344   0.291005  -0.141328  -0.034785  -0.214760
    18  H    0.041017   0.000708   0.000105  -0.000005   0.000002  -0.000001
    19  H   -0.007472  -0.000115  -0.000005   0.000000  -0.000000   0.000000
    20  H    0.025953  -0.000882   0.000025  -0.000003   0.000000  -0.000000
    21  H   -0.080577  -0.014722  -0.000866  -0.000373   0.000014  -0.000013
    22  H    0.000211   0.377570  -0.056625  -0.008801  -0.000696   0.000585
    23  H   -0.083651   0.444978  -0.040620  -0.009007   0.001987  -0.001811
    24  H   -0.006376  -0.009092  -0.064531   0.364205  -0.018707  -0.031435
    25  H    0.003896  -0.011626  -0.038416   0.398306  -0.031287   0.011897
    26  H   -0.000059  -0.000570   0.008041  -0.057041   0.428503  -0.059668
    27  H   -0.000555  -0.001234   0.001614  -0.030575   0.411180  -0.042782
    28  H    0.000000  -0.000001   0.000010   0.000068  -0.000631   0.001152
    29  H    0.000118  -0.000082   0.000096   0.000381  -0.000816   0.018420
    30  H   -0.015306   0.014498  -0.056751  -0.039392   0.015343  -0.020576
    31  H    0.022637  -0.030664  -0.035331   0.016531  -0.000918   0.013242
              13         14         15         16         17         18
     1  Cl   0.000000   0.000002  -0.000033  -0.000448   0.002341  -0.001828
     2  C   -0.000011   0.000006  -0.000057   0.002655  -0.009085  -0.097987
     3  C   -0.000000  -0.000002   0.000009   0.000199  -0.001620   0.443569
     4  C    0.000000   0.000001  -0.000016  -0.000375   0.001479  -0.069202
     5  C   -0.000000   0.000000   0.000024   0.000334  -0.004347   0.021801
     6  C    0.000011   0.000015  -0.000240  -0.006690   0.032825  -0.011144
     7  C    0.000001  -0.000015   0.001118   0.012772  -0.001290   0.041017
     8  C    0.000187   0.000119  -0.001614   0.019794  -0.127344   0.000708
     9  N   -0.000814  -0.000839   0.003503  -0.044742   0.291005   0.000105
    10  C    0.005714  -0.001094  -0.000634   0.002725  -0.141328  -0.000005
    11  C   -0.068844   0.004261   0.030400  -0.062835  -0.034785   0.000002
    12  C    0.438443  -0.154179  -0.043627   0.445543  -0.214760  -0.000001
    13  S   15.399509   0.345500  -0.074592  -0.162355   0.030873   0.000000
    14  C    0.345500   5.178262   0.548423  -0.045579   0.013625  -0.000000
    15  C   -0.074592   0.548423   5.103698   0.353182  -0.080866   0.000000
    16  C   -0.162355  -0.045579   0.353182   5.590911  -0.027586   0.000001
    17  C    0.030873   0.013625  -0.080866  -0.027586   5.699992  -0.000026
    18  H    0.000000  -0.000000   0.000000   0.000001  -0.000026   0.520359
    19  H    0.000000   0.000000  -0.000000  -0.000001   0.000000  -0.007549
    20  H   -0.000000  -0.000000   0.000001   0.000012  -0.000058  -0.000057
    21  H   -0.000000  -0.000000   0.000017  -0.000356   0.001921  -0.000038
    22  H    0.000000  -0.000002   0.000055  -0.001375   0.017932  -0.000034
    23  H   -0.000015  -0.000016   0.000227   0.000810  -0.032199   0.000023
    24  H    0.000733  -0.000406  -0.000206  -0.005879   0.003351   0.000000
    25  H   -0.000326   0.000068   0.000058   0.004259   0.009609  -0.000001
    26  H   -0.001165   0.000426  -0.001129   0.017422   0.002821   0.000000
    27  H    0.000171   0.000258  -0.000896  -0.006978   0.003098   0.000001
    28  H   -0.033141   0.383201  -0.026633   0.012749  -0.001214  -0.000000
    29  H    0.008783  -0.050217   0.405901  -0.037606  -0.011429   0.000000
    30  H   -0.000305  -0.000523   0.004333  -0.066261   0.424945   0.000003
    31  H   -0.000449   0.000736  -0.002520   0.005924   0.361291   0.000003
              19         20         21         22         23         24
     1  Cl  -0.000269   0.000006   0.000087   0.009424   0.000399  -0.000010
     2  C    0.025988  -0.004527   0.030792  -0.025435   0.020113   0.000505
     3  C   -0.074444   0.019844  -0.005049  -0.001027   0.001227   0.000056
     4  C    0.448923  -0.076385   0.016253   0.000482  -0.001288  -0.000016
     5  C   -0.073971   0.445776  -0.063382  -0.001897   0.004609   0.000058
     6  C    0.022903  -0.071678   0.447317   0.015751  -0.041608  -0.000908
     7  C   -0.007472   0.025953  -0.080577   0.000211  -0.083651  -0.006376
     8  C   -0.000115  -0.000882  -0.014722   0.377570   0.444978  -0.009092
     9  N   -0.000005   0.000025  -0.000866  -0.056625  -0.040620  -0.064531
    10  C    0.000000  -0.000003  -0.000373  -0.008801  -0.009007   0.364205
    11  C   -0.000000   0.000000   0.000014  -0.000696   0.001987  -0.018707
    12  C    0.000000  -0.000000  -0.000013   0.000585  -0.001811  -0.031435
    13  S    0.000000  -0.000000  -0.000000   0.000000  -0.000015   0.000733
    14  C    0.000000  -0.000000  -0.000000  -0.000002  -0.000016  -0.000406
    15  C   -0.000000   0.000001   0.000017   0.000055   0.000227  -0.000206
    16  C   -0.000001   0.000012  -0.000356  -0.001375   0.000810  -0.005879
    17  C    0.000000  -0.000058   0.001921   0.017932  -0.032199   0.003351
    18  H   -0.007549  -0.000057  -0.000038  -0.000034   0.000023   0.000000
    19  H    0.520382  -0.007615  -0.000171   0.000004  -0.000003  -0.000000
    20  H   -0.007615   0.524311  -0.005852   0.000007   0.000062   0.000000
    21  H   -0.000171  -0.005852   0.522304   0.000288   0.002259   0.000015
    22  H    0.000004   0.000007   0.000288   0.509723  -0.032306  -0.003650
    23  H   -0.000003   0.000062   0.002259  -0.032306   0.566773   0.015757
    24  H   -0.000000   0.000000   0.000015  -0.003650   0.015757   0.619604
    25  H    0.000000  -0.000000   0.000005   0.009760  -0.001763  -0.035121
    26  H   -0.000000   0.000000   0.000000  -0.000165   0.000209   0.006397
    27  H    0.000000   0.000000  -0.000000  -0.000207   0.000168   0.008408
    28  H    0.000000  -0.000000  -0.000000   0.000000  -0.000000  -0.000005
    29  H   -0.000000   0.000000  -0.000002  -0.000000  -0.000007  -0.000025
    30  H   -0.000001   0.000021   0.000926  -0.001452   0.021354   0.022637
    31  H   -0.000007   0.000010  -0.000354  -0.000501  -0.000103  -0.000976
              25         26         27         28         29         30
     1  Cl   0.001428   0.000021   0.000627  -0.000000  -0.000001  -0.000104
     2  C    0.000060   0.000041   0.000079  -0.000000  -0.000009   0.001623
     3  C   -0.000060   0.000000   0.000020  -0.000000   0.000001   0.000329
     4  C    0.000007  -0.000000  -0.000002  -0.000000  -0.000003  -0.000246
     5  C   -0.000016   0.000000   0.000004  -0.000000   0.000001   0.000958
     6  C    0.000006  -0.000012  -0.000021   0.000000   0.000013  -0.009637
     7  C    0.003896  -0.000059  -0.000555   0.000000   0.000118  -0.015306
     8  C   -0.011626  -0.000570  -0.001234  -0.000001  -0.000082   0.014498
     9  N   -0.038416   0.008041   0.001614   0.000010   0.000096  -0.056751
    10  C    0.398306  -0.057041  -0.030575   0.000068   0.000381  -0.039392
    11  C   -0.031287   0.428503   0.411180  -0.000631  -0.000816   0.015343
    12  C    0.011897  -0.059668  -0.042782   0.001152   0.018420  -0.020576
    13  S   -0.000326  -0.001165   0.000171  -0.033141   0.008783  -0.000305
    14  C    0.000068   0.000426   0.000258   0.383201  -0.050217  -0.000523
    15  C    0.000058  -0.001129  -0.000896  -0.026633   0.405901   0.004333
    16  C    0.004259   0.017422  -0.006978   0.012749  -0.037606  -0.066261
    17  C    0.009609   0.002821   0.003098  -0.001214  -0.011429   0.424945
    18  H   -0.000001   0.000000   0.000001  -0.000000   0.000000   0.000003
    19  H    0.000000  -0.000000   0.000000   0.000000  -0.000000  -0.000001
    20  H   -0.000000   0.000000   0.000000  -0.000000   0.000000   0.000021
    21  H    0.000005   0.000000  -0.000000  -0.000000  -0.000002   0.000926
    22  H    0.009760  -0.000165  -0.000207   0.000000  -0.000000  -0.001452
    23  H   -0.001763   0.000209   0.000168  -0.000000  -0.000007   0.021354
    24  H   -0.035121   0.006397   0.008408  -0.000005  -0.000025   0.022637
    25  H    0.522010  -0.001941  -0.006001  -0.000000  -0.000003  -0.001324
    26  H   -0.001941   0.516290  -0.017881  -0.000001  -0.000009   0.000566
    27  H   -0.006001  -0.017881   0.522366  -0.000001   0.000008   0.000288
    28  H   -0.000000  -0.000001  -0.000001   0.461691  -0.002996  -0.000017
    29  H   -0.000003  -0.000009   0.000008  -0.002996   0.511391  -0.000786
    30  H   -0.001324   0.000566   0.000288  -0.000017  -0.000786   0.601566
    31  H   -0.000235  -0.000020   0.000057   0.000015   0.001582  -0.039941
              31
     1  Cl   0.000072
     2  C    0.002121
     3  C    0.000263
     4  C   -0.000435
     5  C    0.000151
     6  C   -0.003213
     7  C    0.022637
     8  C   -0.030664
     9  N   -0.035331
    10  C    0.016531
    11  C   -0.000918
    12  C    0.013242
    13  S   -0.000449
    14  C    0.000736
    15  C   -0.002520
    16  C    0.005924
    17  C    0.361291
    18  H    0.000003
    19  H   -0.000007
    20  H    0.000010
    21  H   -0.000354
    22  H   -0.000501
    23  H   -0.000103
    24  H   -0.000976
    25  H   -0.000235
    26  H   -0.000020
    27  H    0.000057
    28  H    0.000015
    29  H    0.001582
    30  H   -0.039941
    31  H    0.512341
 Mulliken charges:
               1
     1  Cl  -0.094784
     2  C   -0.230466
     3  C   -0.048133
     4  C   -0.141757
     5  C   -0.133824
     6  C   -0.110217
     7  C    0.148234
     8  C   -0.340842
     9  N   -0.166934
    10  C   -0.243267
    11  C   -0.125930
    12  C   -0.250012
    13  S    0.112093
    14  C   -0.222031
    15  C   -0.217887
    16  C   -0.000227
    17  C   -0.209171
    18  H    0.160282
    19  H    0.153422
    20  H    0.151026
    21  H    0.149558
    22  H    0.192379
    23  H    0.163443
    24  H    0.135614
    25  H    0.166750
    26  H    0.158922
    27  H    0.158787
    28  H    0.205753
    29  H    0.157296
    30  H    0.143231
    31  H    0.178692
 Sum of Mulliken charges =  -0.00000
 Mulliken charges with hydrogens summed into heavy atoms:
               1
     1  Cl  -0.094784
     2  C   -0.230466
     3  C    0.112149
     4  C    0.011665
     5  C    0.017202
     6  C    0.039341
     7  C    0.148234
     8  C    0.014979
     9  N   -0.166934
    10  C    0.059097
    11  C    0.191779
    12  C   -0.250012
    13  S    0.112093
    14  C   -0.016278
    15  C   -0.060590
    16  C   -0.000227
    17  C    0.112752
 Electronic spatial extent (au):  <R**2>=           5780.1416
 Charge=             -0.0000 electrons
 Dipole moment (field-independent basis, Debye):
    X=             -1.4262    Y=              2.1109    Z=              2.3482  Tot=              3.4646
 Quadrupole moment (field-independent basis, Debye-Ang):
   XX=           -112.3233   YY=           -104.5823   ZZ=           -112.2346
   XY=             -7.7430   XZ=              1.4419   YZ=             -3.2195
 Traceless Quadrupole moment (field-independent basis, Debye-Ang):
   XX=             -2.6099   YY=              5.1311   ZZ=             -2.5212
   XY=             -7.7430   XZ=              1.4419   YZ=             -3.2195
 Octapole moment (field-independent basis, Debye-Ang**2):
  XXX=            -36.1910  YYY=              3.2728  ZZZ=              3.1344  XYY=              6.2226
  XXY=             37.9747  XXZ=            -33.2819  XZZ=            -15.0190  YZZ=             -3.4377
  YYZ=              5.0356  XYZ=             -9.0323
 Hexadecapole moment (field-independent basis, Debye-Ang**3):
 XXXX=          -5823.3889 YYYY=          -1292.1234 ZZZZ=           -722.0177 XXXY=            -52.3193
 XXXZ=             71.0911 YYYX=            -28.1233 YYYZ=              0.7201 ZZZX=             33.3060
 ZZZY=             14.9975 XXYY=          -1087.7661 XXZZ=          -1074.8780 YYZZ=           -340.5733
 XXYZ=            -71.5612 YYXZ=            -29.0390 ZZXY=             -4.6384
 N-N= 1.371501991674D+03 E-N=-6.168621738506D+03  KE= 1.449810232623D+03
 Unable to Open any file for archive entry.
 1\1\GINC-TCN1626\SP\RBP86\TZVP\C14H14Cl1N1S1\ELENAA\22-Feb-2021\0\\# B
 P86/TZVP SCRF=COSMORS geom=CHECKPOINT guess=CHECKPOINT\\COSMO-file for
  #PHWBOXQYWZNQIN-UHFFFAOYSA-N\\0,1\Cl,0,5.6277544542,0.9902680023,-3.7
 860165551\C,0,6.7363621626,0.0020550064,-2.8086378054\C,0,7.6635552534
 ,-0.7940019036,-3.4859341274\C,0,8.5638173672,-1.5722988412,-2.7500216
 102\C,0,8.5318630999,-1.5437611038,-1.3519286964\C,0,7.5954947774,-0.7
 377984126,-0.697592203\C,0,6.6749756109,0.0532374744,-1.4055422332\C,0
 ,5.6506633712,0.8859841552,-0.6683370697\N,0,4.3085638459,0.2882984407
 ,-0.7377995272\C,0,3.2722846379,1.2244099607,-0.2759062101\C,0,1.87360
 82149,0.7122958839,-0.6566964128\C,0,1.7672118339,-0.7288706965,-0.258
 3339545\S,0,0.2638675833,-1.6279482699,-0.1234593495\C,0,1.1257102852,
 -3.0790307356,0.347250517\C,0,2.4808301056,-2.8658597537,0.3900862289\
 C,0,2.8476606316,-1.525706185,0.0401117854\C,0,4.2505935879,-0.9813564
 318,0.0030017593\H,0,7.6821331942,-0.79983405,-4.5763837844\H,0,9.2886
 368963,-2.1960832192,-3.2764685685\H,0,9.2320733854,-2.1480368807,-0.7
 724313007\H,0,7.5622371668,-0.7157125349,0.3946589795\H,0,5.5932130822
 ,1.8856966661,-1.125327149\H,0,5.9858467973,1.0216678429,0.3841934688\
 H,0,3.3265547579,1.3774288381,0.826345939\H,0,3.4496395871,2.198943203
 7,-0.7539796471\H,0,1.1075374857,1.327596402,-0.1580359899\H,0,1.72173
 19217,0.8248692069,-1.743984159\H,0,0.5726559338,-3.9909605773,0.55906
 83941\H,0,3.1994511125,-3.64135933,0.6583911025\H,0,4.6263365029,-0.85
 26563419,1.0476382186\H,0,4.924285353,-1.7047258156,-0.48288004\\Versi
 on=ES64L-G16RevC.01\State=1-A\HF=-1455.3357611\RMSD=6.352e-09\Dipole=1
 .0156079,-0.1393938,0.8984105\Quadrupole=1.2622331,2.4396354,-3.701868
 4,-6.143891,0.6913829,1.4439008\PG=C01 [X(C14H14Cl1N1S1)]\\@
 The archive entry for this job was punched.


 Just remember, when you're over the hill, you begin to pick up speed.
 -- Charles Schulz
 Job cpu time:       0 days  0 hours 20 minutes 28.7 seconds.
 Elapsed time:       0 days  0 hours  0 minutes 39.5 seconds.
 File lengths (MBytes):  RWF=    131 Int=      0 D2E=      0 Chk=     17 Scr=      1
 Normal termination of Gaussian 16 at Mon Feb 22 21:24:28 2021.
