 Entering Gaussian System, Link 0=g16
 Input=PXELHGDYRQLRQO-UHFFFAOYSA-N.gjf
 Output=PXELHGDYRQLRQO-UHFFFAOYSA-N.log
 Initial command:
 /sw/arch/RedHatEnterpriseServer7/EB_production/2019/software/Gaussian/g16.c01/l1.exe "/scratch-local/elenaa.9715946/Gau-27627.inp" -scrdir="/scratch-local/elenaa.9715946/"
 Entering Link 1 = /sw/arch/RedHatEnterpriseServer7/EB_production/2019/software/Gaussian/g16.c01/l1.exe PID=     27630.
  
 Copyright (c) 1988-2019, Gaussian, Inc.  All Rights Reserved.
  
 This is part of the Gaussian(R) 16 program.  It is based on
 the Gaussian(R) 09 system (copyright 2009, Gaussian, Inc.),
 the Gaussian(R) 03 system (copyright 2003, Gaussian, Inc.),
 the Gaussian(R) 98 system (copyright 1998, Gaussian, Inc.),
 the Gaussian(R) 94 system (copyright 1995, Gaussian, Inc.),
 the Gaussian 92(TM) system (copyright 1992, Gaussian, Inc.),
 the Gaussian 90(TM) system (copyright 1990, Gaussian, Inc.),
 the Gaussian 88(TM) system (copyright 1988, Gaussian, Inc.),
 the Gaussian 86(TM) system (copyright 1986, Carnegie Mellon
 University), and the Gaussian 82(TM) system (copyright 1983,
 Carnegie Mellon University). Gaussian is a federally registered
 trademark of Gaussian, Inc.
  
 This software contains proprietary and confidential information,
 including trade secrets, belonging to Gaussian, Inc.
  
 This software is provided under written license and may be
 used, copied, transmitted, or stored only in accord with that
 written license.
  
 The following legend is applicable only to US Government
 contracts under FAR:
  
                    RESTRICTED RIGHTS LEGEND
  
 Use, reproduction and disclosure by the US Government is
 subject to restrictions as set forth in subparagraphs (a)
 and (c) of the Commercial Computer Software - Restricted
 Rights clause in FAR 52.227-19.
  
 Gaussian, Inc.
 340 Quinnipiac St., Bldg. 40, Wallingford CT 06492
  
  
 ---------------------------------------------------------------
 Warning -- This program may not be used in any manner that
 competes with the business of Gaussian, Inc. or will provide
 assistance to any competitor of Gaussian, Inc.  The licensee
 of this program is prohibited from giving any competitor of
 Gaussian, Inc. access to this program.  By using this program,
 the user acknowledges that Gaussian, Inc. is engaged in the
 business of creating and licensing software in the field of
 computational chemistry and represents and warrants to the
 licensee that it is not a competitor of Gaussian, Inc. and that
 it will not use this program in any manner prohibited above.
 ---------------------------------------------------------------
  

 Cite this work as:
 Gaussian 16, Revision C.01,
 M. J. Frisch, G. W. Trucks, H. B. Schlegel, G. E. Scuseria, 
 M. A. Robb, J. R. Cheeseman, G. Scalmani, V. Barone, 
 G. A. Petersson, H. Nakatsuji, X. Li, M. Caricato, A. V. Marenich, 
 J. Bloino, B. G. Janesko, R. Gomperts, B. Mennucci, H. P. Hratchian, 
 J. V. Ortiz, A. F. Izmaylov, J. L. Sonnenberg, D. Williams-Young, 
 F. Ding, F. Lipparini, F. Egidi, J. Goings, B. Peng, A. Petrone, 
 T. Henderson, D. Ranasinghe, V. G. Zakrzewski, J. Gao, N. Rega, 
 G. Zheng, W. Liang, M. Hada, M. Ehara, K. Toyota, R. Fukuda, 
 J. Hasegawa, M. Ishida, T. Nakajima, Y. Honda, O. Kitao, H. Nakai, 
 T. Vreven, K. Throssell, J. A. Montgomery, Jr., J. E. Peralta, 
 F. Ogliaro, M. J. Bearpark, J. J. Heyd, E. N. Brothers, K. N. Kudin, 
 V. N. Staroverov, T. A. Keith, R. Kobayashi, J. Normand, 
 K. Raghavachari, A. P. Rendell, J. C. Burant, S. S. Iyengar, 
 J. Tomasi, M. Cossi, J. M. Millam, M. Klene, C. Adamo, R. Cammi, 
 J. W. Ochterski, R. L. Martin, K. Morokuma, O. Farkas, 
 J. B. Foresman, and D. J. Fox, Gaussian, Inc., Wallingford CT, 2019.
 
 ******************************************
 Gaussian 16:  ES64L-G16RevC.01  3-Jul-2019
                23-Feb-2021 
 ******************************************
 %chk=PXELHGDYRQLRQO-UHFFFAOYSA-N.chk
 %NProcShared=32
 Will use up to   32 processors via shared memory.
 -------------------------------------------------------------
 #P BP86/TZVP EmpiricalDispersion=GD3 SCRF=(Solvent=Water) Opt
 -------------------------------------------------------------
 1/18=20,19=15,26=3,38=1/1,3;
 2/9=110,12=2,17=6,18=5,40=1/2;
 3/5=19,7=101,11=2,25=1,30=1,70=2201,71=1,72=1,74=404,124=31/1,2,3;
 4//1;
 5/5=2,38=5,53=1/2;
 6/7=2,8=2,9=2,10=2,28=1/1;
 7//1,2,3,16;
 1/18=20,19=15,26=3/3(2);
 2/9=110/2;
 99//99;
 2/9=110/2;
 3/5=19,7=101,11=2,25=1,30=1,70=2205,71=1,72=1,74=404,124=31/1,2,3;
 4/5=5,16=3,69=1/1;
 5/5=2,38=5,53=1/2;
 7//1,2,3,16;
 1/18=20,19=15,26=3/3(-5);
 2/9=110/2;
 6/7=2,8=2,9=2,10=2,19=2,28=1/1;
 99/9=1/99;
 Leave Link    1 at Tue Feb 23 00:11:08 2021, MaxMem=           0 cpu:               4.5 elap:               0.2
 (Enter /sw/arch/RedHatEnterpriseServer7/EB_production/2019/software/Gaussian/g16.c01/l101.exe)
 -------------------------------------
 Particle #PXELHGDYRQLRQO-UHFFFAOYSA-N
 -------------------------------------
 Symbolic Z-matrix:
 Charge =  1 Multiplicity = 1
 C                     4.77678   1.47362  -1.4095 
 C                     3.49676   1.4283   -0.54505 
 C                     2.52775   0.27403  -0.92733 
 C                     1.28406   0.20984   0.01284 
 N                     0.33765  -0.97521  -0.12669 
 C                    -0.25751  -1.01761  -1.5192 
 C                    -0.75958  -0.8829    0.90489 
 C                    -1.31275  -2.30338   1.10879 
 C                    -0.10511  -3.21391   0.84408 
 C                     0.97846  -2.29452   0.2262 
 H                     5.40312   2.30848  -1.08758 
 H                     4.52187   1.61344  -2.4608 
 H                     5.34761   0.55022  -1.29912 
 H                     2.97206   2.38233  -0.64819 
 H                     3.79872   1.32097   0.50056 
 H                     2.20058   0.43204  -1.95772 
 H                     3.06724  -0.67439  -0.88188 
 H                     0.71897   1.13703  -0.1352 
 H                     1.66575   0.2412    1.03948 
 H                    -0.77367  -0.08332  -1.75634 
 H                     0.50994  -1.17845  -2.27922 
 H                    -0.98433  -1.82441  -1.63752 
 H                    -1.5589   -0.19338   0.61599 
 H                    -0.37912  -0.53938   1.87485 
 H                    -2.10539  -2.50276   0.38224 
 H                    -1.71808  -2.43508   2.11526 
 H                     0.25029  -3.658     1.77807 
 H                    -0.37688  -4.02083   0.15701 
 H                     1.76637  -2.16349   0.9749 
 H                     1.44411  -2.78479  -0.63439 
 
 ITRead=  0  0  0  0  0  0  0  0  0  0  0  0  0  0  0  0  0  0  0  0
 ITRead=  0  0  0  0  0  0  0  0  0  0
 MicOpt= -1 -1 -1 -1 -1 -1 -1 -1 -1 -1 -1 -1 -1 -1 -1 -1 -1 -1 -1 -1
 MicOpt= -1 -1 -1 -1 -1 -1 -1 -1 -1 -1
 NAtoms=     30 NQM=       30 NQMF=       0 NMMI=      0 NMMIF=      0
                NMic=       0 NMicF=      0.
                    Isotopes and Nuclear Properties:
 (Nuclear quadrupole moments (NQMom) in fm**2, nuclear magnetic moments (NMagM)
  in nuclear magnetons)

  Atom         1           2           3           4           5           6           7           8           9          10
 IAtWgt=          12          12          12          12          14          12          12          12          12          12
 AtmWgt=  12.0000000  12.0000000  12.0000000  12.0000000  14.0030740  12.0000000  12.0000000  12.0000000  12.0000000  12.0000000
 NucSpn=           0           0           0           0           2           0           0           0           0           0
 AtZEff=  -0.0000000  -0.0000000  -0.0000000  -0.0000000  -0.0000000  -0.0000000  -0.0000000  -0.0000000  -0.0000000  -0.0000000
 NQMom=    0.0000000   0.0000000   0.0000000   0.0000000   2.0440000   0.0000000   0.0000000   0.0000000   0.0000000   0.0000000
 NMagM=    0.0000000   0.0000000   0.0000000   0.0000000   0.4037610   0.0000000   0.0000000   0.0000000   0.0000000   0.0000000
 AtZNuc=   6.0000000   6.0000000   6.0000000   6.0000000   7.0000000   6.0000000   6.0000000   6.0000000   6.0000000   6.0000000

  Atom        11          12          13          14          15          16          17          18          19          20
 IAtWgt=           1           1           1           1           1           1           1           1           1           1
 AtmWgt=   1.0078250   1.0078250   1.0078250   1.0078250   1.0078250   1.0078250   1.0078250   1.0078250   1.0078250   1.0078250
 NucSpn=           1           1           1           1           1           1           1           1           1           1
 AtZEff=  -0.0000000  -0.0000000  -0.0000000  -0.0000000  -0.0000000  -0.0000000  -0.0000000  -0.0000000  -0.0000000  -0.0000000
 NQMom=    0.0000000   0.0000000   0.0000000   0.0000000   0.0000000   0.0000000   0.0000000   0.0000000   0.0000000   0.0000000
 NMagM=    2.7928460   2.7928460   2.7928460   2.7928460   2.7928460   2.7928460   2.7928460   2.7928460   2.7928460   2.7928460
 AtZNuc=   1.0000000   1.0000000   1.0000000   1.0000000   1.0000000   1.0000000   1.0000000   1.0000000   1.0000000   1.0000000

  Atom        21          22          23          24          25          26          27          28          29          30
 IAtWgt=           1           1           1           1           1           1           1           1           1           1
 AtmWgt=   1.0078250   1.0078250   1.0078250   1.0078250   1.0078250   1.0078250   1.0078250   1.0078250   1.0078250   1.0078250
 NucSpn=           1           1           1           1           1           1           1           1           1           1
 AtZEff=  -0.0000000  -0.0000000  -0.0000000  -0.0000000  -0.0000000  -0.0000000  -0.0000000  -0.0000000  -0.0000000  -0.0000000
 NQMom=    0.0000000   0.0000000   0.0000000   0.0000000   0.0000000   0.0000000   0.0000000   0.0000000   0.0000000   0.0000000
 NMagM=    2.7928460   2.7928460   2.7928460   2.7928460   2.7928460   2.7928460   2.7928460   2.7928460   2.7928460   2.7928460
 AtZNuc=   1.0000000   1.0000000   1.0000000   1.0000000   1.0000000   1.0000000   1.0000000   1.0000000   1.0000000   1.0000000
 Leave Link  101 at Tue Feb 23 00:11:08 2021, MaxMem=   104857600 cpu:               3.0 elap:               0.1
 (Enter /sw/arch/RedHatEnterpriseServer7/EB_production/2019/software/Gaussian/g16.c01/l103.exe)

 GradGradGradGradGradGradGradGradGradGradGradGradGradGradGradGradGradGrad
 Berny optimization.
 Initialization pass.
                           ----------------------------
                           !    Initial Parameters    !
                           ! (Angstroms and Degrees)  !
 --------------------------                            --------------------------
 ! Name  Definition              Value          Derivative Info.                !
 --------------------------------------------------------------------------------
 ! R1    R(1,2)                  1.5452         estimate D2E/DX2                !
 ! R2    R(1,11)                 1.0922         estimate D2E/DX2                !
 ! R3    R(1,12)                 1.0908         estimate D2E/DX2                !
 ! R4    R(1,13)                 1.0912         estimate D2E/DX2                !
 ! R5    R(2,3)                  1.5548         estimate D2E/DX2                !
 ! R6    R(2,14)                 1.0937         estimate D2E/DX2                !
 ! R7    R(2,15)                 1.0936         estimate D2E/DX2                !
 ! R8    R(3,4)                  1.5604         estimate D2E/DX2                !
 ! R9    R(3,16)                 1.0926         estimate D2E/DX2                !
 ! R10   R(3,17)                 1.0921         estimate D2E/DX2                !
 ! R11   R(4,5)                  1.523          estimate D2E/DX2                !
 ! R12   R(4,18)                 1.0959         estimate D2E/DX2                !
 ! R13   R(4,19)                 1.0957         estimate D2E/DX2                !
 ! R14   R(5,6)                  1.515          estimate D2E/DX2                !
 ! R15   R(5,7)                  1.5088         estimate D2E/DX2                !
 ! R16   R(5,10)                 1.5086         estimate D2E/DX2                !
 ! R17   R(6,20)                 1.0934         estimate D2E/DX2                !
 ! R18   R(6,21)                 1.092          estimate D2E/DX2                !
 ! R19   R(6,22)                 1.0923         estimate D2E/DX2                !
 ! R20   R(7,8)                  1.538          estimate D2E/DX2                !
 ! R21   R(7,23)                 1.0944         estimate D2E/DX2                !
 ! R22   R(7,24)                 1.0971         estimate D2E/DX2                !
 ! R23   R(8,9)                  1.5354         estimate D2E/DX2                !
 ! R24   R(8,25)                 1.0936         estimate D2E/DX2                !
 ! R25   R(8,26)                 1.093          estimate D2E/DX2                !
 ! R26   R(9,10)                 1.5496         estimate D2E/DX2                !
 ! R27   R(9,27)                 1.0936         estimate D2E/DX2                !
 ! R28   R(9,28)                 1.0941         estimate D2E/DX2                !
 ! R29   R(10,29)                1.0948         estimate D2E/DX2                !
 ! R30   R(10,30)                1.0944         estimate D2E/DX2                !
 ! A1    A(2,1,11)             109.4245         estimate D2E/DX2                !
 ! A2    A(2,1,12)             110.4482         estimate D2E/DX2                !
 ! A3    A(2,1,13)             110.6053         estimate D2E/DX2                !
 ! A4    A(11,1,12)            108.6698         estimate D2E/DX2                !
 ! A5    A(11,1,13)            108.4835         estimate D2E/DX2                !
 ! A6    A(12,1,13)            109.1611         estimate D2E/DX2                !
 ! A7    A(1,2,3)              113.6087         estimate D2E/DX2                !
 ! A8    A(1,2,14)             108.6069         estimate D2E/DX2                !
 ! A9    A(1,2,15)             108.0006         estimate D2E/DX2                !
 ! A10   A(3,2,14)             108.9902         estimate D2E/DX2                !
 ! A11   A(3,2,15)             109.5298         estimate D2E/DX2                !
 ! A12   A(14,2,15)            107.9534         estimate D2E/DX2                !
 ! A13   A(2,3,4)              112.2803         estimate D2E/DX2                !
 ! A14   A(2,3,16)             108.1277         estimate D2E/DX2                !
 ! A15   A(2,3,17)             109.0636         estimate D2E/DX2                !
 ! A16   A(4,3,16)             109.6035         estimate D2E/DX2                !
 ! A17   A(4,3,17)             109.4474         estimate D2E/DX2                !
 ! A18   A(16,3,17)            108.2268         estimate D2E/DX2                !
 ! A19   A(3,4,5)              118.1708         estimate D2E/DX2                !
 ! A20   A(3,4,18)             107.1454         estimate D2E/DX2                !
 ! A21   A(3,4,19)             106.6011         estimate D2E/DX2                !
 ! A22   A(5,4,18)             108.9975         estimate D2E/DX2                !
 ! A23   A(5,4,19)             108.9395         estimate D2E/DX2                !
 ! A24   A(18,4,19)            106.3783         estimate D2E/DX2                !
 ! A25   A(4,5,6)              110.4943         estimate D2E/DX2                !
 ! A26   A(4,5,7)              109.9776         estimate D2E/DX2                !
 ! A27   A(4,5,10)             113.2719         estimate D2E/DX2                !
 ! A28   A(6,5,7)              110.1487         estimate D2E/DX2                !
 ! A29   A(6,5,10)             110.9418         estimate D2E/DX2                !
 ! A30   A(7,5,10)             101.6817         estimate D2E/DX2                !
 ! A31   A(5,6,20)             111.1548         estimate D2E/DX2                !
 ! A32   A(5,6,21)             111.5775         estimate D2E/DX2                !
 ! A33   A(5,6,22)             112.435          estimate D2E/DX2                !
 ! A34   A(20,6,21)            107.8586         estimate D2E/DX2                !
 ! A35   A(20,6,22)            107.0688         estimate D2E/DX2                !
 ! A36   A(21,6,22)            106.4661         estimate D2E/DX2                !
 ! A37   A(5,7,8)              107.1991         estimate D2E/DX2                !
 ! A38   A(5,7,23)             112.9033         estimate D2E/DX2                !
 ! A39   A(5,7,24)             111.8045         estimate D2E/DX2                !
 ! A40   A(8,7,23)             110.7444         estimate D2E/DX2                !
 ! A41   A(8,7,24)             107.2608         estimate D2E/DX2                !
 ! A42   A(23,7,24)            106.8214         estimate D2E/DX2                !
 ! A43   A(7,8,9)              104.0026         estimate D2E/DX2                !
 ! A44   A(7,8,25)             109.9384         estimate D2E/DX2                !
 ! A45   A(7,8,26)             111.5159         estimate D2E/DX2                !
 ! A46   A(9,8,25)             110.3297         estimate D2E/DX2                !
 ! A47   A(9,8,26)             112.2703         estimate D2E/DX2                !
 ! A48   A(25,8,26)            108.7251         estimate D2E/DX2                !
 ! A49   A(8,9,10)             105.479          estimate D2E/DX2                !
 ! A50   A(8,9,27)             110.4378         estimate D2E/DX2                !
 ! A51   A(8,9,28)             110.5031         estimate D2E/DX2                !
 ! A52   A(10,9,27)            110.7472         estimate D2E/DX2                !
 ! A53   A(10,9,28)            111.1543         estimate D2E/DX2                !
 ! A54   A(27,9,28)            108.5161         estimate D2E/DX2                !
 ! A55   A(5,10,9)             108.3683         estimate D2E/DX2                !
 ! A56   A(5,10,29)            111.1631         estimate D2E/DX2                !
 ! A57   A(5,10,30)            112.8646         estimate D2E/DX2                !
 ! A58   A(9,10,29)            107.5528         estimate D2E/DX2                !
 ! A59   A(9,10,30)            110.1985         estimate D2E/DX2                !
 ! A60   A(29,10,30)           106.5686         estimate D2E/DX2                !
 ! D1    D(11,1,2,3)           179.7339         estimate D2E/DX2                !
 ! D2    D(11,1,2,14)           58.2765         estimate D2E/DX2                !
 ! D3    D(11,1,2,15)          -58.5557         estimate D2E/DX2                !
 ! D4    D(12,1,2,3)            60.147          estimate D2E/DX2                !
 ! D5    D(12,1,2,14)          -61.3104         estimate D2E/DX2                !
 ! D6    D(12,1,2,15)         -178.1425         estimate D2E/DX2                !
 ! D7    D(13,1,2,3)           -60.812          estimate D2E/DX2                !
 ! D8    D(13,1,2,14)          177.7306         estimate D2E/DX2                !
 ! D9    D(13,1,2,15)           60.8984         estimate D2E/DX2                !
 ! D10   D(1,2,3,4)            176.9258         estimate D2E/DX2                !
 ! D11   D(1,2,3,16)           -62.033          estimate D2E/DX2                !
 ! D12   D(1,2,3,17)            55.441          estimate D2E/DX2                !
 ! D13   D(14,2,3,4)           -61.831          estimate D2E/DX2                !
 ! D14   D(14,2,3,16)           59.2103         estimate D2E/DX2                !
 ! D15   D(14,2,3,17)          176.6843         estimate D2E/DX2                !
 ! D16   D(15,2,3,4)            56.0705         estimate D2E/DX2                !
 ! D17   D(15,2,3,16)          177.1117         estimate D2E/DX2                !
 ! D18   D(15,2,3,17)          -65.4143         estimate D2E/DX2                !
 ! D19   D(2,3,4,5)           -172.3519         estimate D2E/DX2                !
 ! D20   D(2,3,4,18)            64.167          estimate D2E/DX2                !
 ! D21   D(2,3,4,19)           -49.4052         estimate D2E/DX2                !
 ! D22   D(16,3,4,5)            67.459          estimate D2E/DX2                !
 ! D23   D(16,3,4,18)          -56.022          estimate D2E/DX2                !
 ! D24   D(16,3,4,19)         -169.5942         estimate D2E/DX2                !
 ! D25   D(17,3,4,5)           -51.087          estimate D2E/DX2                !
 ! D26   D(17,3,4,18)         -174.5681         estimate D2E/DX2                !
 ! D27   D(17,3,4,19)           71.8598         estimate D2E/DX2                !
 ! D28   D(3,4,5,6)            -60.6416         estimate D2E/DX2                !
 ! D29   D(3,4,5,7)            177.545          estimate D2E/DX2                !
 ! D30   D(3,4,5,10)            64.5365         estimate D2E/DX2                !
 ! D31   D(18,4,5,6)            61.9094         estimate D2E/DX2                !
 ! D32   D(18,4,5,7)           -59.904          estimate D2E/DX2                !
 ! D33   D(18,4,5,10)         -172.9126         estimate D2E/DX2                !
 ! D34   D(19,4,5,6)           177.5947         estimate D2E/DX2                !
 ! D35   D(19,4,5,7)            55.7813         estimate D2E/DX2                !
 ! D36   D(19,4,5,10)          -57.2272         estimate D2E/DX2                !
 ! D37   D(4,5,6,20)           -56.8263         estimate D2E/DX2                !
 ! D38   D(4,5,6,21)            63.6142         estimate D2E/DX2                !
 ! D39   D(4,5,6,22)          -176.8444         estimate D2E/DX2                !
 ! D40   D(7,5,6,20)            64.8861         estimate D2E/DX2                !
 ! D41   D(7,5,6,21)          -174.6733         estimate D2E/DX2                !
 ! D42   D(7,5,6,22)           -55.1319         estimate D2E/DX2                !
 ! D43   D(10,5,6,20)          176.6848         estimate D2E/DX2                !
 ! D44   D(10,5,6,21)          -62.8747         estimate D2E/DX2                !
 ! D45   D(10,5,6,22)           56.6667         estimate D2E/DX2                !
 ! D46   D(4,5,7,8)           -157.4244         estimate D2E/DX2                !
 ! D47   D(4,5,7,23)            80.3478         estimate D2E/DX2                !
 ! D48   D(4,5,7,24)           -40.1419         estimate D2E/DX2                !
 ! D49   D(6,5,7,8)             80.5567         estimate D2E/DX2                !
 ! D50   D(6,5,7,23)           -41.6711         estimate D2E/DX2                !
 ! D51   D(6,5,7,24)          -162.1608         estimate D2E/DX2                !
 ! D52   D(10,5,7,8)           -37.1298         estimate D2E/DX2                !
 ! D53   D(10,5,7,23)         -159.3576         estimate D2E/DX2                !
 ! D54   D(10,5,7,24)           80.1527         estimate D2E/DX2                !
 ! D55   D(4,5,10,9)           147.4838         estimate D2E/DX2                !
 ! D56   D(4,5,10,29)           29.4948         estimate D2E/DX2                !
 ! D57   D(4,5,10,30)          -90.1824         estimate D2E/DX2                !
 ! D58   D(6,5,10,9)           -87.5793         estimate D2E/DX2                !
 ! D59   D(6,5,10,29)          154.4317         estimate D2E/DX2                !
 ! D60   D(6,5,10,30)           34.7545         estimate D2E/DX2                !
 ! D61   D(7,5,10,9)            29.5337         estimate D2E/DX2                !
 ! D62   D(7,5,10,29)          -88.4552         estimate D2E/DX2                !
 ! D63   D(7,5,10,30)          151.8676         estimate D2E/DX2                !
 ! D64   D(5,7,8,9)             30.6198         estimate D2E/DX2                !
 ! D65   D(5,7,8,25)           -87.5025         estimate D2E/DX2                !
 ! D66   D(5,7,8,26)           151.8281         estimate D2E/DX2                !
 ! D67   D(23,7,8,9)           154.1843         estimate D2E/DX2                !
 ! D68   D(23,7,8,25)           36.062          estimate D2E/DX2                !
 ! D69   D(23,7,8,26)          -84.6074         estimate D2E/DX2                !
 ! D70   D(24,7,8,9)           -89.6015         estimate D2E/DX2                !
 ! D71   D(24,7,8,25)          152.2762         estimate D2E/DX2                !
 ! D72   D(24,7,8,26)           31.6068         estimate D2E/DX2                !
 ! D73   D(7,8,9,10)           -11.3051         estimate D2E/DX2                !
 ! D74   D(7,8,9,27)           108.3956         estimate D2E/DX2                !
 ! D75   D(7,8,9,28)          -131.5267         estimate D2E/DX2                !
 ! D76   D(25,8,9,10)          106.5472         estimate D2E/DX2                !
 ! D77   D(25,8,9,27)         -133.7522         estimate D2E/DX2                !
 ! D78   D(25,8,9,28)          -13.6744         estimate D2E/DX2                !
 ! D79   D(26,8,9,10)         -132.008          estimate D2E/DX2                !
 ! D80   D(26,8,9,27)          -12.3073         estimate D2E/DX2                !
 ! D81   D(26,8,9,28)          107.7705         estimate D2E/DX2                !
 ! D82   D(8,9,10,5)           -11.4278         estimate D2E/DX2                !
 ! D83   D(8,9,10,29)          108.8379         estimate D2E/DX2                !
 ! D84   D(8,9,10,30)         -135.3731         estimate D2E/DX2                !
 ! D85   D(27,9,10,5)         -130.9239         estimate D2E/DX2                !
 ! D86   D(27,9,10,29)         -10.6581         estimate D2E/DX2                !
 ! D87   D(27,9,10,30)         105.1309         estimate D2E/DX2                !
 ! D88   D(28,9,10,5)          108.3648         estimate D2E/DX2                !
 ! D89   D(28,9,10,29)        -131.3695         estimate D2E/DX2                !
 ! D90   D(28,9,10,30)         -15.5805         estimate D2E/DX2                !
 --------------------------------------------------------------------------------
 Trust Radius=3.00D-01 FncErr=1.00D-07 GrdErr=1.00D-06 EigMax=2.50D+02 EigMin=1.00D-04
 Number of steps in this run=    180 maximum allowed number of steps=    180.
 GradGradGradGradGradGradGradGradGradGradGradGradGradGradGradGradGradGrad

 Leave Link  103 at Tue Feb 23 00:11:08 2021, MaxMem=   104857600 cpu:               1.0 elap:               0.1
 (Enter /sw/arch/RedHatEnterpriseServer7/EB_production/2019/software/Gaussian/g16.c01/l202.exe)
                          Input orientation:                          
 ---------------------------------------------------------------------
 Center     Atomic      Atomic             Coordinates (Angstroms)
 Number     Number       Type             X           Y           Z
 ---------------------------------------------------------------------
      1          6           0        4.776780    1.473620   -1.409500
      2          6           0        3.496760    1.428300   -0.545050
      3          6           0        2.527750    0.274030   -0.927330
      4          6           0        1.284060    0.209840    0.012840
      5          7           0        0.337650   -0.975210   -0.126690
      6          6           0       -0.257510   -1.017610   -1.519200
      7          6           0       -0.759580   -0.882900    0.904890
      8          6           0       -1.312750   -2.303380    1.108790
      9          6           0       -0.105110   -3.213910    0.844080
     10          6           0        0.978460   -2.294520    0.226200
     11          1           0        5.403120    2.308480   -1.087580
     12          1           0        4.521870    1.613440   -2.460800
     13          1           0        5.347610    0.550220   -1.299120
     14          1           0        2.972060    2.382330   -0.648190
     15          1           0        3.798720    1.320970    0.500560
     16          1           0        2.200580    0.432040   -1.957720
     17          1           0        3.067240   -0.674390   -0.881880
     18          1           0        0.718970    1.137030   -0.135200
     19          1           0        1.665750    0.241200    1.039480
     20          1           0       -0.773670   -0.083320   -1.756340
     21          1           0        0.509940   -1.178450   -2.279220
     22          1           0       -0.984330   -1.824410   -1.637520
     23          1           0       -1.558900   -0.193380    0.615990
     24          1           0       -0.379120   -0.539380    1.874850
     25          1           0       -2.105390   -2.502760    0.382240
     26          1           0       -1.718080   -2.435080    2.115260
     27          1           0        0.250290   -3.658000    1.778070
     28          1           0       -0.376880   -4.020830    0.157010
     29          1           0        1.766370   -2.163490    0.974900
     30          1           0        1.444110   -2.784790   -0.634390
 ---------------------------------------------------------------------
                    Distance matrix (angstroms):
                    1          2          3          4          5
     1  C    0.000000
     2  C    1.545244   0.000000
     3  C    2.594155   1.554818   0.000000
     4  C    3.977346   2.586876   1.560386   0.000000
     5  N    5.229555   3.991474   2.645404   1.522992   0.000000
     6  C    5.618037   4.585410   3.126710   2.496040   1.514958
     7  C    6.446772   5.055730   3.937265   2.483203   1.508838
     8  C    7.595386   6.308091   5.053540   3.776348   2.452400
     9  C    7.133331   6.037654   4.715461   3.787191   2.479961
    10  C    5.594786   4.560269   3.213780   2.531943   1.508558
    11  H    1.092211   2.168701   3.525964   4.752038   6.112685
    12  H    1.090761   2.180648   2.849924   4.309571   5.445813
    13  H    1.091191   2.182955   2.857642   4.283636   5.366678
    14  H    2.159250   1.093673   2.172616   2.829491   4.299436
    15  H    2.151333   1.093618   2.179522   2.792131   4.200582
    16  H    2.832356   2.160614   1.092571   2.184603   2.967075
    17  H    2.795507   2.172383   1.092069   2.182228   2.848064
    18  H    4.266492   2.822930   2.154977   1.095867   2.146401
    19  H    4.146670   2.696765   2.147665   1.095747   2.145566
    20  H    5.775107   4.689221   3.422620   2.729504   2.164777
    21  H    5.098609   4.327076   2.829993   2.789292   2.168957
    22  H    6.642242   5.643915   4.152412   3.465177   2.179766
    23  H    6.857284   5.434847   4.393292   2.934075   2.181681
    24  H    6.436026   4.974950   4.118706   2.606641   2.170223
    25  H    8.147772   6.906315   5.558014   4.356952   2.925895
    26  H    8.359729   7.014094   5.884191   4.519803   3.373957
    27  H    7.548724   6.465826   5.288372   4.375489   3.291368
    28  H    7.694358   6.722425   5.297027   4.547315   3.141153
    29  H    5.289282   4.266785   3.184287   2.605931   2.160266
    30  H    5.462741   4.687375   3.258292   3.067952   2.180961
                    6          7          8          9         10
     6  C    0.000000
     7  C    2.479200   0.000000
     8  C    3.110156   1.537965   0.000000
     9  C    3.229869   2.421908   1.535425   0.000000
    10  C    2.490892   2.339674   2.455338   1.549573   0.000000
    11  H    6.579658   7.220368   8.437784   8.035465   6.518531
    12  H    5.536380   6.741906   7.882020   7.458853   5.920125
    13  H    5.824422   6.649005   7.635539   6.963773   5.432184
    14  H    4.769525   5.196049   6.588054   6.558487   5.158675
    15  H    5.099156   5.079235   6.295473   5.993583   4.593572
    16  H    2.887212   4.322748   5.406431   5.143855   3.700975
    17  H    3.402637   4.228543   5.079438   4.414964   2.866298
    18  H    2.740701   2.710722   4.184712   4.535281   3.460272
    19  H    3.439531   2.676554   3.918055   3.887404   2.750212
    20  H    1.093414   2.778790   3.664457   4.124288   3.448163
    21  H    1.092007   3.440580   4.008276   3.778411   2.782490
    22  H    1.092334   2.720442   2.807043   2.976924   2.747180
    23  H    2.632871   1.094447   2.180720   3.359930   3.317367
    24  H    3.429733   1.097077   2.137805   2.879354   2.764342
    25  H    3.039047   2.169865   1.093575   2.172591   3.094809
    26  H    4.165547   2.189288   1.092986   2.196394   3.295396
    27  H    4.254587   3.079523   2.173942   1.093555   2.190345
    28  H    3.441404   3.248444   2.175172   1.094095   2.195878
    29  H    3.410230   2.832885   3.085203   2.150101   1.094771
    30  H    2.607935   3.292843   3.297076   2.184056   1.094445
                   11         12         13         14         15
    11  H    0.000000
    12  H    1.773532   0.000000
    13  H    1.771809   1.778141   0.000000
    14  H    2.471552   2.505725   3.069784   0.000000
    15  H    2.464034   3.062375   2.496390   1.769033   0.000000
    16  H    3.812405   2.652769   3.217378   2.472586   3.063885
    17  H    3.794227   3.137372   2.621802   3.067117   2.535284
    18  H    4.921441   4.483016   4.808676   2.624947   3.150061
    19  H    4.771369   4.721485   4.372715   3.023097   2.450694
    20  H    6.657378   5.605176   6.170939   4.619299   5.288892
    21  H    6.125512   4.891135   5.229909   4.626170   4.978991
    22  H    7.627761   6.543305   6.771030   5.859049   6.110840
    23  H    7.591520   7.050319   7.205586   5.363024   5.568723
    24  H    7.093701   6.888556   6.637526   5.111998   4.775345
    25  H    9.038038   8.303406   8.227689   7.120842   7.035156
    26  H    9.136248   8.733145   8.396069   7.269216   6.866604
    27  H    8.388235   8.000156   7.291151   7.055520   6.246081
    28  H    8.661268   7.911743   7.468909   7.270777   6.788850
    29  H    6.121951   5.801898   5.035938   4.975197   4.061638
    30  H    6.466880   5.670345   5.177014   5.388316   4.867193
                   16         17         18         19         20
    16  H    0.000000
    17  H    1.769949   0.000000
    18  H    2.452297   3.058291   0.000000
    19  H    3.050520   2.548353   1.754644   0.000000
    20  H    3.025279   3.983294   2.518992   3.724606   0.000000
    21  H    2.356969   2.957435   3.162588   3.790128   1.766456
    22  H    3.916343   4.278873   3.732067   4.296044   1.757808
    23  H    4.598785   4.886323   2.742803   3.281245   2.501329
    24  H    4.720922   4.415335   2.838389   2.342785   3.680924
    25  H    5.712254   5.630012   4.636035   4.709860   3.492949
    26  H    6.337621   5.914572   4.874808   4.446356   4.627307
    27  H    5.872664   4.890038   5.183877   4.213408   5.130193
    28  H    5.562682   4.913239   5.281079   4.807909   4.395718
    29  H    3.940251   2.712437   3.636317   2.407660   4.270665
    30  H    3.559697   2.673872   4.019414   3.465196   3.670866
                   21         22         23         24         25
    21  H    0.000000
    22  H    1.749825   0.000000
    23  H    3.692249   2.840545   0.000000
    24  H    4.295944   3.788710   1.759638   0.000000
    25  H    3.959434   2.407564   2.384644   3.010441   0.000000
    26  H    5.084746   3.872294   2.701549   2.333300   1.777062
    27  H    4.762057   4.068488   4.077645   3.182973   2.971893
    28  H    3.847180   2.900620   4.032023   3.882200   2.311496
    29  H    3.624668   3.808683   3.881697   2.837388   3.931523
    30  H    2.481626   2.797485   4.158957   3.829141   3.702976
                   26         27         28         29         30
    26  H    0.000000
    27  H    2.341732   0.000000
    28  H    2.854499   1.775619   0.000000
    29  H    3.676353   2.275333   2.951640   0.000000
    30  H    4.205035   2.829782   2.338827   1.754902   0.000000
 Stoichiometry    C9H20N(1+)
 Framework group  C1[X(C9H20N)]
 Deg. of freedom    84
 Full point group                 C1      NOp   1
 Largest Abelian subgroup         C1      NOp   1
 Largest concise Abelian subgroup C1      NOp   1
                         Standard orientation:                         
 ---------------------------------------------------------------------
 Center     Atomic      Atomic             Coordinates (Angstroms)
 Number     Number       Type             X           Y           Z
 ---------------------------------------------------------------------
      1          6           0        4.391861    0.457749    0.167232
      2          6           0        3.146965   -0.055371   -0.590872
      3          6           0        1.842904   -0.016353    0.254917
      4          6           0        0.593362   -0.468018   -0.563281
      5          7           0       -0.779769   -0.313201    0.077068
      6          6           0       -0.865949   -1.128643    1.350930
      7          6           0       -1.852155   -0.747343   -0.891488
      8          6           0       -3.159742   -0.062886   -0.458971
      9          6           0       -2.696492    1.257520    0.173056
     10          6           0       -1.160679    1.124344    0.330281
     11          1           0        5.265501    0.396224   -0.485372
     12          1           0        4.575161   -0.149953    1.054283
     13          1           0        4.256895    1.498111    0.467449
     14          1           0        3.332907   -1.084500   -0.910936
     15          1           0        3.020066    0.558621   -1.486925
     16          1           0        1.975884   -0.676465    1.115311
     17          1           0        1.687741    0.999488    0.624523
     18          1           0        0.745513   -1.519679   -0.831208
     19          1           0        0.613461    0.096117   -1.502434
     20          1           0       -0.647301   -2.182853    1.160172
     21          1           0       -0.161213   -0.771551    2.104796
     22          1           0       -1.857073   -1.084367    1.807992
     23          1           0       -1.977464   -1.833937   -0.929223
     24          1           0       -1.634909   -0.417081   -1.914869
     25          1           0       -3.675406   -0.678918    0.282986
     26          1           0       -3.828664    0.096759   -1.308486
     27          1           0       -2.947746    2.100624   -0.476489
     28          1           0       -3.180936    1.409181    1.142261
     29          1           0       -0.694732    1.791557   -0.402005
     30          1           0       -0.849757    1.479032    1.317871
 ---------------------------------------------------------------------
 Rotational constants (GHZ):           3.0440105           0.5586513           0.5465671
 Leave Link  202 at Tue Feb 23 00:11:09 2021, MaxMem=   104857600 cpu:               1.7 elap:               0.1
 (Enter /sw/arch/RedHatEnterpriseServer7/EB_production/2019/software/Gaussian/g16.c01/l301.exe)
 Standard basis: TZVP (5D, 7F)
 Ernie: Thresh=  0.10000D-02 Tol=  0.10000D-05 Strict=F.
 There are   320 symmetry adapted cartesian basis functions of A   symmetry.
 There are   310 symmetry adapted basis functions of A   symmetry.
   310 basis functions,   510 primitive gaussians,   320 cartesian basis functions
    40 alpha electrons       40 beta electrons
       nuclear repulsion energy       585.8361235227 Hartrees.
 IExCor=  404 DFT=T Ex=B Corr=P86 ExCW=0 ScaHFX=  0.000000
 ScaDFX=  1.000000  1.000000  1.000000  1.000000 ScalE2=  1.000000  1.000000
 IRadAn=      5 IRanWt=     -1 IRanGd=            0 ICorTp=0 IEmpDi=131
 NAtoms=   30 NActive=   30 NUniq=   30 SFac= 1.00D+00 NAtFMM=   60 NAOKFM=F Big=F
 Integral buffers will be    131072 words long.
 Raffenetti 2 integral format.
 Two-electron integral symmetry is turned on.
 R6Disp:  Grimme-D3 Dispersion energy=       -0.0317510954 Hartrees.
 Nuclear repulsion after empirical dispersion term =      585.8043724274 Hartrees.
 ------------------------------------------------------------------------------
 Polarizable Continuum Model (PCM)
 =================================
 Model                : PCM.
 Atomic radii         : UFF (Universal Force Field).
 Polarization charges : Total charges.
 Charge compensation  : None.
 Solution method      : On-the-fly selection.
 Cavity type          : Scaled VdW (van der Waals Surface) (Alpha=1.100).
 Cavity algorithm     : GePol (No added spheres)
                        Default sphere list used, NSphG=   30.
                        Lebedev-Laikov grids with approx.  5.0 points / Ang**2.
                        Smoothing algorithm: York/Karplus (Gamma=1.0000).
                        Polarization charges: spherical gaussians, with
                                              point-specific exponents (IZeta= 3).
                        Self-potential: point-specific (ISelfS= 7).
                        Self-field    : sphere-specific E.n sum rule (ISelfD= 2).
 1st derivatives      : Analytical E(r).r(x)/FMM algorithm (CHGder, D1EAlg=3).
                        Cavity 1st derivative terms included.
 Solvent              : Water, Eps=  78.355300 Eps(inf)=   1.777849
 ------------------------------------------------------------------------------
 GePol: Number of generator spheres                  =      30
 GePol: Total number of spheres                      =      30
 GePol: Number of exposed spheres                    =      29 ( 96.67%)
 GePol: Number of points                             =    1905
 GePol: Average weight of points                     =       0.13
 GePol: Minimum weight of points                     =   0.61D-10
 GePol: Maximum weight of points                     =    0.20577
 GePol: Number of points with low weight             =     132
 GePol: Fraction of low-weight points (<1% of avg)   =       6.93%
 GePol: Cavity surface area                          =    253.447 Ang**2
 GePol: Cavity volume                                =    260.997 Ang**3
 Leave Link  301 at Tue Feb 23 00:11:09 2021, MaxMem=   104857600 cpu:               1.9 elap:               0.1
 (Enter /sw/arch/RedHatEnterpriseServer7/EB_production/2019/software/Gaussian/g16.c01/l302.exe)
 NPDir=0 NMtPBC=     1 NCelOv=     1 NCel=       1 NClECP=     1 NCelD=      1
         NCelK=      1 NCelE2=     1 NClLst=     1 CellRange=     0.0.
 One-electron integrals computed using PRISM.
 One-electron integral symmetry used in STVInt
 PrsmSu:  requested number of processors reduced to:  27 ShMem   1 Linda.
 NBasis=   310 RedAO= T EigKep=  8.12D-05  NBF=   310
 NBsUse=   310 1.00D-06 EigRej= -1.00D+00 NBFU=   310
 Precomputing XC quadrature grid using
 IXCGrd= 4 IRadAn=           5 IRanWt=          -1 IRanGd=           0 AccXCQ= 0.00D+00.
 Generated NRdTot=       0 NPtTot=           0 NUsed=           0 NTot=          32
 NSgBfM=   316   316   316   316   316 MxSgAt=    30 MxSgA2=    30.
 Leave Link  302 at Tue Feb 23 00:11:09 2021, MaxMem=   104857600 cpu:              11.2 elap:               0.4
 (Enter /sw/arch/RedHatEnterpriseServer7/EB_production/2019/software/Gaussian/g16.c01/l303.exe)
 DipDrv:  MaxL=1.
 Leave Link  303 at Tue Feb 23 00:11:10 2021, MaxMem=   104857600 cpu:               2.7 elap:               0.1
 (Enter /sw/arch/RedHatEnterpriseServer7/EB_production/2019/software/Gaussian/g16.c01/l401.exe)
 ExpMin= 9.52D-02 ExpMax= 1.97D+04 ExpMxC= 6.73D+02 IAcc=3 IRadAn=         5 AccDes= 0.00D+00
 Harris functional with IExCor=  404 and IRadAn=       5 diagonalized for initial guess.
 HarFok:  IExCor=  404 AccDes= 0.00D+00 IRadAn=         5 IDoV= 1 UseB2=F ITyADJ=14
 ICtDFT=  3500011 ScaDFX=  1.000000  1.000000  1.000000  1.000000
 FoFCou: FMM=F IPFlag=           0 FMFlag=      100000 FMFlg1=           0
         NFxFlg=           0 DoJE=T BraDBF=F KetDBF=T FulRan=T
         wScrn=  0.000000 ICntrl=       500 IOpCl=  0 I1Cent=   200000004 NGrid=           0
         NMat0=    1 NMatS0=      1 NMatT0=    0 NMatD0=    1 NMtDS0=    0 NMtDT0=    0
 Petite list used in FoFCou.
 Harris En= -409.948971232568    
 JPrj=0 DoOrth=F DoCkMO=F.
 Leave Link  401 at Tue Feb 23 00:11:10 2021, MaxMem=   104857600 cpu:              20.4 elap:               0.7
 (Enter /sw/arch/RedHatEnterpriseServer7/EB_production/2019/software/Gaussian/g16.c01/l502.exe)
 Integral symmetry usage will be decided dynamically.
 Closed shell SCF:
 Using DIIS extrapolation, IDIIS=  1040.
 NGot=   104857600 LenX=   104638374 LenY=   104535533
 Requested convergence on RMS density matrix=1.00D-08 within 128 cycles.
 Requested convergence on MAX density matrix=1.00D-06.
 Requested convergence on             energy=1.00D-06.
 No special actions if energy rises.
 Fock matrices will be formed incrementally for  20 cycles.

 Cycle   1  Pass 1  IDiag  1:
 FoFJK:  IHMeth= 1 ICntrl=     500 DoSepK=F KAlg= 0 I1Cent=           0 FoldK=F
 IRaf= 900000000 NMat=       1 IRICut=       1 DoRegI=T DoRafI=F ISym2E= 0 IDoP0=0 IntGTp=1.
 FoFCou: FMM=F IPFlag=           0 FMFlag=      100000 FMFlg1=           0
         NFxFlg=           0 DoJE=T BraDBF=F KetDBF=F FulRan=T
         wScrn=  0.000000 ICntrl=       500 IOpCl=  0 I1Cent=           0 NGrid=           0
         NMat0=    1 NMatS0=      1 NMatT0=    0 NMatD0=    1 NMtDS0=    0 NMtDT0=    0
 Symmetry not used in FoFCou.
 Inv3:  Mode=1 IEnd=    10887075.
 Iteration    1 A*A^-1 deviation from unit magnitude is 3.33D-15 for    733.
 Iteration    1 A*A^-1 deviation from orthogonality  is 2.00D-15 for   1707   1225.
 Iteration    1 A^-1*A deviation from unit magnitude is 3.11D-15 for   1463.
 Iteration    1 A^-1*A deviation from orthogonality  is 2.09D-15 for   1849    824.
 E= -409.442129963006    
 DIIS: error= 2.37D-02 at cycle   1 NSaved=   1.
 NSaved= 1 IEnMin= 1 EnMin= -409.442129963006     IErMin= 1 ErrMin= 2.37D-02
 ErrMax= 2.37D-02  0.00D+00 EMaxC= 1.00D-01 BMatC= 3.00D-01 BMatP= 3.00D-01
 IDIUse=3 WtCom= 7.63D-01 WtEn= 2.37D-01
 Coeff-Com:  0.100D+01
 Coeff-En:   0.100D+01
 Coeff:      0.100D+01
 Gap=     0.258 Goal=   None    Shift=    0.000
 GapD=    0.258 DampG=1.000 DampE=0.500 DampFc=0.5000 IDamp=-1.
 Damping current iteration by 5.00D-01
 RMSDP=3.71D-03 MaxDP=1.32D-01              OVMax= 2.09D-01

 Cycle   2  Pass 1  IDiag  1:
 RMSU=  1.85D-03    CP:  9.81D-01
 E= -409.518560940400     Delta-E=       -0.076430977395 Rises=F Damp=T
 DIIS: error= 1.33D-02 at cycle   2 NSaved=   2.
 NSaved= 2 IEnMin= 2 EnMin= -409.518560940400     IErMin= 2 ErrMin= 1.33D-02
 ErrMax= 1.33D-02  0.00D+00 EMaxC= 1.00D-01 BMatC= 4.56D-02 BMatP= 3.00D-01
 IDIUse=3 WtCom= 8.67D-01 WtEn= 1.33D-01
 Coeff-Com:  0.235D+00 0.765D+00
 Coeff-En:   0.367D+00 0.633D+00
 Coeff:      0.253D+00 0.747D+00
 Gap=     0.314 Goal=   None    Shift=    0.000
 RMSDP=8.82D-04 MaxDP=3.17D-02 DE=-7.64D-02 OVMax= 1.37D-01

 Cycle   3  Pass 1  IDiag  1:
 RMSU=  6.93D-04    CP:  9.84D-01  7.05D-01
 E= -409.725461609702     Delta-E=       -0.206900669302 Rises=F Damp=F
 DIIS: error= 7.03D-03 at cycle   3 NSaved=   3.
 NSaved= 3 IEnMin= 3 EnMin= -409.725461609702     IErMin= 3 ErrMin= 7.03D-03
 ErrMax= 7.03D-03  0.00D+00 EMaxC= 1.00D-01 BMatC= 1.39D-02 BMatP= 4.56D-02
 IDIUse=3 WtCom= 9.30D-01 WtEn= 7.03D-02
 Coeff-Com:  0.864D-01 0.361D+00 0.552D+00
 Coeff-En:   0.000D+00 0.000D+00 0.100D+01
 Coeff:      0.803D-01 0.336D+00 0.584D+00
 Gap=     0.297 Goal=   None    Shift=    0.000
 RMSDP=4.13D-04 MaxDP=1.62D-02 DE=-2.07D-01 OVMax= 2.45D-02

 Cycle   4  Pass 1  IDiag  1:
 RMSU=  3.64D-04    CP:  9.91D-01  7.36D-01  7.48D-01
 E= -409.732771710837     Delta-E=       -0.007310101135 Rises=F Damp=F
 DIIS: error= 4.05D-03 at cycle   4 NSaved=   4.
 NSaved= 4 IEnMin= 4 EnMin= -409.732771710837     IErMin= 4 ErrMin= 4.05D-03
 ErrMax= 4.05D-03  0.00D+00 EMaxC= 1.00D-01 BMatC= 4.98D-03 BMatP= 1.39D-02
 IDIUse=3 WtCom= 9.60D-01 WtEn= 4.05D-02
 Coeff-Com:  0.218D-01 0.100D+00 0.378D+00 0.500D+00
 Coeff-En:   0.000D+00 0.000D+00 0.306D+00 0.694D+00
 Coeff:      0.209D-01 0.961D-01 0.375D+00 0.508D+00
 Gap=     0.294 Goal=   None    Shift=    0.000
 RMSDP=2.36D-04 MaxDP=8.23D-03 DE=-7.31D-03 OVMax= 1.09D-02

 Cycle   5  Pass 1  IDiag  1:
 RMSU=  1.22D-04    CP:  9.86D-01  7.07D-01  7.38D-01  4.74D-01
 E= -409.737196258258     Delta-E=       -0.004424547421 Rises=F Damp=F
 DIIS: error= 5.85D-04 at cycle   5 NSaved=   5.
 NSaved= 5 IEnMin= 5 EnMin= -409.737196258258     IErMin= 5 ErrMin= 5.85D-04
 ErrMax= 5.85D-04  0.00D+00 EMaxC= 1.00D-01 BMatC= 1.26D-04 BMatP= 4.98D-03
 IDIUse=3 WtCom= 9.94D-01 WtEn= 5.85D-03
 Coeff-Com:  0.330D-02 0.178D-01 0.118D+00 0.227D+00 0.634D+00
 Coeff-En:   0.000D+00 0.000D+00 0.000D+00 0.000D+00 0.100D+01
 Coeff:      0.328D-02 0.177D-01 0.117D+00 0.226D+00 0.636D+00
 Gap=     0.294 Goal=   None    Shift=    0.000
 RMSDP=5.20D-05 MaxDP=2.37D-03 DE=-4.42D-03 OVMax= 1.92D-03

 Cycle   6  Pass 1  IDiag  1:
 RMSU=  2.65D-05    CP:  9.87D-01  7.10D-01  7.68D-01  5.21D-01  7.13D-01
 E= -409.737297697931     Delta-E=       -0.000101439672 Rises=F Damp=F
 DIIS: error= 2.07D-04 at cycle   6 NSaved=   6.
 NSaved= 6 IEnMin= 6 EnMin= -409.737297697931     IErMin= 6 ErrMin= 2.07D-04
 ErrMax= 2.07D-04  0.00D+00 EMaxC= 1.00D-01 BMatC= 1.58D-05 BMatP= 1.26D-04
 IDIUse=3 WtCom= 9.98D-01 WtEn= 2.07D-03
 Coeff-Com:  0.994D-03 0.604D-02 0.536D-01 0.116D+00 0.383D+00 0.440D+00
 Coeff-En:   0.000D+00 0.000D+00 0.000D+00 0.000D+00 0.000D+00 0.100D+01
 Coeff:      0.992D-03 0.602D-02 0.535D-01 0.116D+00 0.382D+00 0.442D+00
 Gap=     0.293 Goal=   None    Shift=    0.000
 RMSDP=1.22D-05 MaxDP=3.78D-04 DE=-1.01D-04 OVMax= 6.63D-04

 Cycle   7  Pass 1  IDiag  1:
 RMSU=  8.07D-06    CP:  9.87D-01  7.12D-01  7.66D-01  5.31D-01  7.27D-01
                    CP:  7.36D-01
 E= -409.737312353142     Delta-E=       -0.000014655211 Rises=F Damp=F
 DIIS: error= 1.76D-05 at cycle   7 NSaved=   7.
 NSaved= 7 IEnMin= 7 EnMin= -409.737312353142     IErMin= 7 ErrMin= 1.76D-05
 ErrMax= 1.76D-05  0.00D+00 EMaxC= 1.00D-01 BMatC= 2.06D-07 BMatP= 1.58D-05
 IDIUse=1 WtCom= 1.00D+00 WtEn= 0.00D+00
 Coeff-Com:  0.191D-03 0.101D-02 0.107D-01 0.258D-01 0.896D-01 0.155D+00
 Coeff-Com:  0.717D+00
 Coeff:      0.191D-03 0.101D-02 0.107D-01 0.258D-01 0.896D-01 0.155D+00
 Coeff:      0.717D+00
 Gap=     0.293 Goal=   None    Shift=    0.000
 RMSDP=1.91D-06 MaxDP=5.84D-05 DE=-1.47D-05 OVMax= 7.12D-05

 Cycle   8  Pass 1  IDiag  1:
 RMSU=  1.54D-06    CP:  9.87D-01  7.12D-01  7.65D-01  5.32D-01  7.32D-01
                    CP:  7.30D-01  8.95D-01
 E= -409.737312501637     Delta-E=       -0.000000148496 Rises=F Damp=F
 DIIS: error= 4.20D-06 at cycle   8 NSaved=   8.
 NSaved= 8 IEnMin= 8 EnMin= -409.737312501637     IErMin= 8 ErrMin= 4.20D-06
 ErrMax= 4.20D-06  0.00D+00 EMaxC= 1.00D-01 BMatC= 9.77D-09 BMatP= 2.06D-07
 IDIUse=1 WtCom= 1.00D+00 WtEn= 0.00D+00
 Coeff-Com:  0.304D-04 0.557D-04 0.113D-02 0.331D-02 0.121D-01 0.299D-01
 Coeff-Com:  0.243D+00 0.710D+00
 Coeff:      0.304D-04 0.557D-04 0.113D-02 0.331D-02 0.121D-01 0.299D-01
 Coeff:      0.243D+00 0.710D+00
 Gap=     0.293 Goal=   None    Shift=    0.000
 RMSDP=5.20D-07 MaxDP=1.07D-05 DE=-1.48D-07 OVMax= 2.07D-05

 Cycle   9  Pass 1  IDiag  1:
 RMSU=  3.32D-07    CP:  9.87D-01  7.12D-01  7.66D-01  5.32D-01  7.32D-01
                    CP:  7.37D-01  9.13D-01  8.01D-01
 E= -409.737312528391     Delta-E=       -0.000000026754 Rises=F Damp=F
 DIIS: error= 2.12D-06 at cycle   9 NSaved=   9.
 NSaved= 9 IEnMin= 9 EnMin= -409.737312528391     IErMin= 9 ErrMin= 2.12D-06
 ErrMax= 2.12D-06  0.00D+00 EMaxC= 1.00D-01 BMatC= 2.71D-09 BMatP= 9.77D-09
 IDIUse=1 WtCom= 1.00D+00 WtEn= 0.00D+00
 Coeff-Com:  0.798D-05-0.252D-04 0.426D-04 0.406D-03 0.171D-02 0.746D-02
 Coeff-Com:  0.946D-01 0.408D+00 0.488D+00
 Coeff:      0.798D-05-0.252D-04 0.426D-04 0.406D-03 0.171D-02 0.746D-02
 Coeff:      0.946D-01 0.408D+00 0.488D+00
 Gap=     0.293 Goal=   None    Shift=    0.000
 RMSDP=1.63D-07 MaxDP=4.32D-06 DE=-2.68D-08 OVMax= 9.24D-06

 Cycle  10  Pass 1  IDiag  1:
 RMSU=  1.05D-07    CP:  9.87D-01  7.12D-01  7.66D-01  5.32D-01  7.32D-01
                    CP:  7.38D-01  9.12D-01  8.09D-01  6.51D-01
 E= -409.737312511403     Delta-E=        0.000000016988 Rises=F Damp=F
 DIIS: error= 4.12D-07 at cycle  10 NSaved=  10.
 NSaved=10 IEnMin= 9 EnMin= -409.737312528391     IErMin=10 ErrMin= 4.12D-07
 ErrMax= 4.12D-07  0.00D+00 EMaxC= 1.00D-01 BMatC= 7.42D-11 BMatP= 2.71D-09
 IDIUse=1 WtCom= 1.00D+00 WtEn= 0.00D+00
 Coeff-Com:  0.115D-05-0.129D-04-0.476D-04-0.547D-04-0.112D-03 0.677D-03
 Coeff-Com:  0.189D-01 0.107D+00 0.200D+00 0.674D+00
 Coeff:      0.115D-05-0.129D-04-0.476D-04-0.547D-04-0.112D-03 0.677D-03
 Coeff:      0.189D-01 0.107D+00 0.200D+00 0.674D+00
 Gap=     0.293 Goal=   None    Shift=    0.000
 RMSDP=4.55D-08 MaxDP=7.66D-07 DE= 1.70D-08 OVMax= 1.51D-06

 Cycle  11  Pass 1  IDiag  1:
 RMSU=  2.51D-08    CP:  9.87D-01  7.12D-01  7.66D-01  5.32D-01  7.32D-01
                    CP:  7.38D-01  9.14D-01  8.22D-01  6.65D-01  7.58D-01
 E= -409.737312511480     Delta-E=       -0.000000000077 Rises=F Damp=F
 DIIS: error= 6.94D-08 at cycle  11 NSaved=  11.
 NSaved=11 IEnMin= 9 EnMin= -409.737312528391     IErMin=11 ErrMin= 6.94D-08
 ErrMax= 6.94D-08  0.00D+00 EMaxC= 1.00D-01 BMatC= 2.74D-12 BMatP= 7.42D-11
 IDIUse=1 WtCom= 1.00D+00 WtEn= 0.00D+00
 Coeff-Com:  0.527D-07-0.354D-05-0.150D-04-0.288D-04-0.800D-04-0.237D-04
 Coeff-Com:  0.336D-02 0.232D-01 0.546D-01 0.256D+00 0.663D+00
 Coeff:      0.527D-07-0.354D-05-0.150D-04-0.288D-04-0.800D-04-0.237D-04
 Coeff:      0.336D-02 0.232D-01 0.546D-01 0.256D+00 0.663D+00
 Gap=     0.293 Goal=   None    Shift=    0.000
 RMSDP=8.18D-09 MaxDP=1.59D-07 DE=-7.67D-11 OVMax= 3.55D-07

 Error on total polarization charges =  0.01273
 SCF Done:  E(RB-P86) =  -409.737312511     A.U. after   11 cycles
            NFock= 11  Conv=0.82D-08     -V/T= 2.0057
 KE= 4.074086988268D+02 PE=-2.106198450559D+03 EE= 7.032480667931D+02
 Leave Link  502 at Tue Feb 23 00:11:30 2021, MaxMem=   104857600 cpu:             619.5 elap:              19.9
 (Enter /sw/arch/RedHatEnterpriseServer7/EB_production/2019/software/Gaussian/g16.c01/l601.exe)
 Copying SCF densities to generalized density rwf, IOpCl= 0 IROHF=0.

 **********************************************************************

            Population analysis using the SCF Density.

 **********************************************************************

 Orbital symmetries:
       Occupied  (A) (A) (A) (A) (A) (A) (A) (A) (A) (A) (A) (A)
                 (A) (A) (A) (A) (A) (A) (A) (A) (A) (A) (A) (A)
                 (A) (A) (A) (A) (A) (A) (A) (A) (A) (A) (A) (A)
                 (A) (A) (A) (A)
       Virtual   (A) (A) (A) (A) (A) (A) (A) (A) (A) (A) (A) (A)
                 (A) (A) (A) (A) (A) (A) (A) (A) (A) (A) (A) (A)
                 (A) (A) (A) (A) (A) (A) (A) (A) (A) (A) (A) (A)
                 (A) (A) (A) (A) (A) (A) (A) (A) (A) (A) (A) (A)
                 (A) (A) (A) (A) (A) (A) (A) (A) (A) (A) (A) (A)
                 (A) (A) (A) (A) (A) (A) (A) (A) (A) (A) (A) (A)
                 (A) (A) (A) (A) (A) (A) (A) (A) (A) (A) (A) (A)
                 (A) (A) (A) (A) (A) (A) (A) (A) (A) (A) (A) (A)
                 (A) (A) (A) (A) (A) (A) (A) (A) (A) (A) (A) (A)
                 (A) (A) (A) (A) (A) (A) (A) (A) (A) (A) (A) (A)
                 (A) (A) (A) (A) (A) (A) (A) (A) (A) (A) (A) (A)
                 (A) (A) (A) (A) (A) (A) (A) (A) (A) (A) (A) (A)
                 (A) (A) (A) (A) (A) (A) (A) (A) (A) (A) (A) (A)
                 (A) (A) (A) (A) (A) (A) (A) (A) (A) (A) (A) (A)
                 (A) (A) (A) (A) (A) (A) (A) (A) (A) (A) (A) (A)
                 (A) (A) (A) (A) (A) (A) (A) (A) (A) (A) (A) (A)
                 (A) (A) (A) (A) (A) (A) (A) (A) (A) (A) (A) (A)
                 (A) (A) (A) (A) (A) (A) (A) (A) (A) (A) (A) (A)
                 (A) (A) (A) (A) (A) (A) (A) (A) (A) (A) (A) (A)
                 (A) (A) (A) (A) (A) (A) (A) (A) (A) (A) (A) (A)
                 (A) (A) (A) (A) (A) (A) (A) (A) (A) (A) (A) (A)
                 (A) (A) (A) (A) (A) (A) (A) (A) (A) (A) (A) (A)
                 (A) (A) (A) (A) (A) (A)
 The electronic state is 1-A.
 Alpha  occ. eigenvalues --  -14.15375  -9.96714  -9.96389  -9.96371  -9.96108
 Alpha  occ. eigenvalues --   -9.91879  -9.91863  -9.91730  -9.90637  -9.88948
 Alpha  occ. eigenvalues --   -0.95771  -0.76666  -0.73498  -0.70505  -0.69283
 Alpha  occ. eigenvalues --   -0.66617  -0.60629  -0.56904  -0.56205  -0.53574
 Alpha  occ. eigenvalues --   -0.50517  -0.49446  -0.45975  -0.45051  -0.43399
 Alpha  occ. eigenvalues --   -0.41091  -0.40553  -0.38445  -0.38288  -0.37941
 Alpha  occ. eigenvalues --   -0.37417  -0.35354  -0.34930  -0.33753  -0.33403
 Alpha  occ. eigenvalues --   -0.33016  -0.31418  -0.30654  -0.30441  -0.30160
 Alpha virt. eigenvalues --   -0.00818   0.01426   0.01649   0.02612   0.03425
 Alpha virt. eigenvalues --    0.04215   0.04352   0.04551   0.05066   0.05872
 Alpha virt. eigenvalues --    0.06201   0.07177   0.07396   0.08751   0.09566
 Alpha virt. eigenvalues --    0.09956   0.10365   0.10609   0.11138   0.11285
 Alpha virt. eigenvalues --    0.11992   0.12750   0.13627   0.14027   0.14604
 Alpha virt. eigenvalues --    0.15223   0.16644   0.16901   0.18133   0.18997
 Alpha virt. eigenvalues --    0.19593   0.20031   0.20656   0.21348   0.22481
 Alpha virt. eigenvalues --    0.23578   0.24736   0.24976   0.26046   0.26766
 Alpha virt. eigenvalues --    0.27268   0.29219   0.29475   0.30037   0.31781
 Alpha virt. eigenvalues --    0.33177   0.34117   0.35800   0.36201   0.36697
 Alpha virt. eigenvalues --    0.37033   0.37302   0.37880   0.38357   0.38685
 Alpha virt. eigenvalues --    0.39171   0.39705   0.40254   0.41076   0.41460
 Alpha virt. eigenvalues --    0.41488   0.41827   0.42365   0.42753   0.43248
 Alpha virt. eigenvalues --    0.44202   0.44299   0.44892   0.45335   0.45484
 Alpha virt. eigenvalues --    0.46452   0.46583   0.47991   0.48603   0.49422
 Alpha virt. eigenvalues --    0.49804   0.51864   0.53286   0.54246   0.56425
 Alpha virt. eigenvalues --    0.58845   0.60795   0.62583   0.63901   0.65363
 Alpha virt. eigenvalues --    0.66285   0.70049   0.72249   0.76791   0.79017
 Alpha virt. eigenvalues --    0.98434   1.05602   1.09514   1.10684   1.14759
 Alpha virt. eigenvalues --    1.16142   1.17546   1.18597   1.18675   1.19585
 Alpha virt. eigenvalues --    1.20544   1.21454   1.21533   1.22064   1.22563
 Alpha virt. eigenvalues --    1.23343   1.23968   1.25180   1.25537   1.26496
 Alpha virt. eigenvalues --    1.27710   1.27987   1.29712   1.30773   1.31335
 Alpha virt. eigenvalues --    1.32075   1.32289   1.33218   1.33504   1.34049
 Alpha virt. eigenvalues --    1.36401   1.37139   1.40534   1.41233   1.41786
 Alpha virt. eigenvalues --    1.42291   1.42864   1.44640   1.45293   1.47264
 Alpha virt. eigenvalues --    1.48876   1.50244   1.52239   1.54012   1.54492
 Alpha virt. eigenvalues --    1.54922   1.56668   1.58790   1.60867   1.61247
 Alpha virt. eigenvalues --    1.61930   1.63227   1.63973   1.64648   1.65569
 Alpha virt. eigenvalues --    1.66405   1.66881   1.68356   1.68584   1.69875
 Alpha virt. eigenvalues --    1.71114   1.71618   1.72265   1.72975   1.73267
 Alpha virt. eigenvalues --    1.73317   1.74494   1.75804   1.76456   1.77324
 Alpha virt. eigenvalues --    1.78209   1.78965   1.79945   1.80054   1.82036
 Alpha virt. eigenvalues --    1.82447   1.84056   1.84995   1.87279   1.88581
 Alpha virt. eigenvalues --    1.90785   1.93041   1.94417   1.94587   1.96662
 Alpha virt. eigenvalues --    1.99650   2.01086   2.03600   2.05289   2.07667
 Alpha virt. eigenvalues --    2.08818   2.13435   2.14302   2.17756   2.18317
 Alpha virt. eigenvalues --    2.19021   2.22358   2.23467   2.23865   2.26049
 Alpha virt. eigenvalues --    2.28622   2.29942   2.30892   2.32019   2.32803
 Alpha virt. eigenvalues --    2.33472   2.34628   2.37744   2.38329   2.39790
 Alpha virt. eigenvalues --    2.41316   2.43007   2.44347   2.45978   2.46294
 Alpha virt. eigenvalues --    2.47284   2.48007   2.49469   2.50873   2.50934
 Alpha virt. eigenvalues --    2.52704   2.54212   2.55911   2.56365   2.57176
 Alpha virt. eigenvalues --    2.58724   2.59226   2.59771   2.60109   2.61939
 Alpha virt. eigenvalues --    2.64464   2.65254   2.66567   2.68951   2.71559
 Alpha virt. eigenvalues --    2.72835   2.74101   2.76755   2.81228   2.81847
 Alpha virt. eigenvalues --    2.88139   2.89515   2.91595   2.94840   2.97294
 Alpha virt. eigenvalues --    2.99990   3.05483   3.07259   3.09949   3.12688
 Alpha virt. eigenvalues --    3.15744   3.20683   3.22033   3.23338   3.24173
 Alpha virt. eigenvalues --    3.25700   3.27907   3.28513   3.29712   3.30704
 Alpha virt. eigenvalues --    3.33385   3.33984   3.34260   3.34702   3.38145
 Alpha virt. eigenvalues --    3.39878   3.52570   3.58488   3.60171   3.62398
 Alpha virt. eigenvalues --   21.67742  21.74583  21.77128  21.78934  21.81867
 Alpha virt. eigenvalues --   21.83906  21.87922  21.88572  21.91896  31.67071
          Condensed to atoms (all electrons):
               1          2          3          4          5          6
     1  C    5.030755   0.274659  -0.063490   0.013309  -0.000520   0.000039
     2  C    0.274659   5.116136   0.234406  -0.020862   0.006748  -0.000291
     3  C   -0.063490   0.234406   5.284643   0.133709  -0.021020   0.010068
     4  C    0.013309  -0.020862   0.133709   5.428940   0.194065  -0.087028
     5  N   -0.000520   0.006748  -0.021020   0.194065   6.517101   0.247353
     6  C    0.000039  -0.000291   0.010068  -0.087028   0.247353   5.126403
     7  C    0.000087  -0.000801   0.022392  -0.099706   0.238750  -0.072735
     8  C   -0.000007   0.000129  -0.003284   0.015132  -0.041889   0.004031
     9  C    0.000012  -0.000061   0.003236   0.009178  -0.039257  -0.001836
    10  C   -0.000178  -0.001865  -0.013513  -0.067675   0.222659  -0.092510
    11  H    0.404185  -0.043383   0.013478  -0.000686   0.000012   0.000002
    12  H    0.406561  -0.037379  -0.008712  -0.000024  -0.000009   0.000010
    13  H    0.410555  -0.042025  -0.006084  -0.000819   0.000008  -0.000019
    14  H   -0.036804   0.406763  -0.033243  -0.008737   0.000089  -0.000401
    15  H   -0.040559   0.427229  -0.053102  -0.006088  -0.000193   0.000203
    16  H   -0.001868  -0.021687   0.403004  -0.038455  -0.005632   0.011950
    17  H   -0.000638  -0.037444   0.419437  -0.049390  -0.002891  -0.006813
    18  H   -0.000356  -0.002589  -0.029913   0.398279  -0.015068  -0.013701
    19  H   -0.000168   0.000952  -0.036351   0.405894  -0.016220   0.011179
    20  H   -0.000018  -0.000067  -0.004425  -0.001141  -0.017698   0.386054
    21  H    0.000075   0.000021   0.005118  -0.015083  -0.017054   0.397140
    22  H   -0.000000   0.000010  -0.000122   0.009459  -0.016600   0.378529
    23  H   -0.000001  -0.000011  -0.000154  -0.004751  -0.019000  -0.007086
    24  H    0.000005  -0.000149   0.001342  -0.004883  -0.023023   0.009139
    25  H    0.000000  -0.000002   0.000104  -0.000286  -0.000592   0.001182
    26  H    0.000000  -0.000001   0.000040  -0.000196   0.003756   0.000647
    27  H    0.000000  -0.000006   0.000073  -0.000766   0.001702  -0.000131
    28  H   -0.000000   0.000001  -0.000115   0.000052   0.001406   0.001787
    29  H   -0.000011   0.000190  -0.005976   0.005211  -0.024380   0.009355
    30  H    0.000035  -0.000136   0.000611  -0.002944  -0.021689  -0.007417
               7          8          9         10         11         12
     1  C    0.000087  -0.000007   0.000012  -0.000178   0.404185   0.406561
     2  C   -0.000801   0.000129  -0.000061  -0.001865  -0.043383  -0.037379
     3  C    0.022392  -0.003284   0.003236  -0.013513   0.013478  -0.008712
     4  C   -0.099706   0.015132   0.009178  -0.067675  -0.000686  -0.000024
     5  N    0.238750  -0.041889  -0.039257   0.222659   0.000012  -0.000009
     6  C   -0.072735   0.004031  -0.001836  -0.092510   0.000002   0.000010
     7  C    5.401266   0.196753  -0.036737  -0.153067  -0.000001  -0.000001
     8  C    0.196753   5.243324   0.210349  -0.042885   0.000000   0.000000
     9  C   -0.036737   0.210349   5.228427   0.210259  -0.000000  -0.000000
    10  C   -0.153067  -0.042885   0.210259   5.449797   0.000002  -0.000016
    11  H   -0.000001   0.000000  -0.000000   0.000002   0.531827  -0.024026
    12  H   -0.000001   0.000000  -0.000000  -0.000016  -0.024026   0.554005
    13  H   -0.000003   0.000000   0.000000   0.000040  -0.024490  -0.029854
    14  H   -0.000024   0.000001   0.000001   0.000320  -0.002816  -0.007382
    15  H    0.000001  -0.000000  -0.000009  -0.000679  -0.002442   0.008247
    16  H   -0.000402  -0.000084   0.000129  -0.006303  -0.000167   0.005411
    17  H   -0.000776   0.000134   0.000070   0.017900  -0.000133  -0.001123
    18  H   -0.008357   0.001515  -0.001259   0.014076   0.000017   0.000046
    19  H   -0.004761  -0.001910   0.002556  -0.025692   0.000006   0.000027
    20  H   -0.004813   0.000254  -0.000904   0.010177  -0.000000   0.000001
    21  H    0.008775  -0.001847   0.000996  -0.007145  -0.000000  -0.000015
    22  H   -0.006529   0.008663  -0.003181   0.001486   0.000000   0.000000
    23  H    0.390727  -0.030683   0.008417   0.010544   0.000000   0.000000
    24  H    0.407534  -0.043993   0.003071  -0.007720  -0.000000  -0.000000
    25  H   -0.032214   0.425321  -0.043232  -0.000872  -0.000000  -0.000000
    26  H   -0.031512   0.410582  -0.033783   0.008830  -0.000000   0.000000
    27  H    0.007479  -0.029663   0.410974  -0.030424  -0.000000  -0.000000
    28  H    0.001850  -0.023441   0.401913  -0.027617   0.000000   0.000000
    29  H   -0.006331   0.006518  -0.041074   0.403038  -0.000000   0.000002
    30  H    0.012340   0.002590  -0.025843   0.393192  -0.000001   0.000001
              13         14         15         16         17         18
     1  C    0.410555  -0.036804  -0.040559  -0.001868  -0.000638  -0.000356
     2  C   -0.042025   0.406763   0.427229  -0.021687  -0.037444  -0.002589
     3  C   -0.006084  -0.033243  -0.053102   0.403004   0.419437  -0.029913
     4  C   -0.000819  -0.008737  -0.006088  -0.038455  -0.049390   0.398279
     5  N    0.000008   0.000089  -0.000193  -0.005632  -0.002891  -0.015068
     6  C   -0.000019  -0.000401   0.000203   0.011950  -0.006813  -0.013701
     7  C   -0.000003  -0.000024   0.000001  -0.000402  -0.000776  -0.008357
     8  C    0.000000   0.000001  -0.000000  -0.000084   0.000134   0.001515
     9  C    0.000000   0.000001  -0.000009   0.000129   0.000070  -0.001259
    10  C    0.000040   0.000320  -0.000679  -0.006303   0.017900   0.014076
    11  H   -0.024490  -0.002816  -0.002442  -0.000167  -0.000133   0.000017
    12  H   -0.029854  -0.007382   0.008247   0.005411  -0.001123   0.000046
    13  H    0.551977   0.008099  -0.007073  -0.000884   0.005413   0.000012
    14  H    0.008099   0.563334  -0.033524  -0.007542   0.007515   0.003864
    15  H   -0.007073  -0.033524   0.562877   0.007490  -0.005763  -0.000034
    16  H   -0.000884  -0.007542   0.007490   0.525033  -0.026461  -0.004940
    17  H    0.005413   0.007515  -0.005763  -0.026461   0.523372   0.004704
    18  H    0.000012   0.003864  -0.000034  -0.004940   0.004704   0.471485
    19  H    0.000038  -0.000629   0.004933   0.004725  -0.003298  -0.020044
    20  H    0.000001   0.000067  -0.000008  -0.001149   0.000281   0.002191
    21  H    0.000008   0.000053  -0.000036  -0.003077   0.000743   0.000892
    22  H   -0.000000  -0.000001   0.000001   0.000128   0.000015  -0.000034
    23  H   -0.000000  -0.000004   0.000004   0.000041  -0.000004   0.002399
    24  H    0.000000   0.000022  -0.000015  -0.000022   0.000053  -0.000592
    25  H   -0.000000   0.000000  -0.000000  -0.000002   0.000001  -0.000048
    26  H   -0.000000   0.000000   0.000000  -0.000000   0.000002   0.000025
    27  H    0.000000   0.000000   0.000000  -0.000001   0.000012   0.000001
    28  H   -0.000000  -0.000000   0.000000  -0.000000   0.000028   0.000027
    29  H    0.000003  -0.000009   0.000182   0.000468  -0.000483   0.000303
    30  H    0.000002  -0.000006   0.000026   0.000361  -0.002442  -0.000305
              19         20         21         22         23         24
     1  C   -0.000168  -0.000018   0.000075  -0.000000  -0.000001   0.000005
     2  C    0.000952  -0.000067   0.000021   0.000010  -0.000011  -0.000149
     3  C   -0.036351  -0.004425   0.005118  -0.000122  -0.000154   0.001342
     4  C    0.405894  -0.001141  -0.015083   0.009459  -0.004751  -0.004883
     5  N   -0.016220  -0.017698  -0.017054  -0.016600  -0.019000  -0.023023
     6  C    0.011179   0.386054   0.397140   0.378529  -0.007086   0.009139
     7  C   -0.004761  -0.004813   0.008775  -0.006529   0.390727   0.407534
     8  C   -0.001910   0.000254  -0.001847   0.008663  -0.030683  -0.043993
     9  C    0.002556  -0.000904   0.000996  -0.003181   0.008417   0.003071
    10  C   -0.025692   0.010177  -0.007145   0.001486   0.010544  -0.007720
    11  H    0.000006  -0.000000  -0.000000   0.000000   0.000000  -0.000000
    12  H    0.000027   0.000001  -0.000015   0.000000   0.000000  -0.000000
    13  H    0.000038   0.000001   0.000008  -0.000000  -0.000000   0.000000
    14  H   -0.000629   0.000067   0.000053  -0.000001  -0.000004   0.000022
    15  H    0.004933  -0.000008  -0.000036   0.000001   0.000004  -0.000015
    16  H    0.004725  -0.001149  -0.003077   0.000128   0.000041  -0.000022
    17  H   -0.003298   0.000281   0.000743   0.000015  -0.000004   0.000053
    18  H   -0.020044   0.002191   0.000892  -0.000034   0.002399  -0.000592
    19  H    0.480868  -0.000065  -0.000111  -0.000213   0.000094   0.003122
    20  H   -0.000065   0.467839  -0.017716  -0.018238   0.001384   0.000115
    21  H   -0.000111  -0.017716   0.458313  -0.019412   0.000194  -0.000294
    22  H   -0.000213  -0.018238  -0.019412   0.469303  -0.000341  -0.000067
    23  H    0.000094   0.001384   0.000194  -0.000341   0.448190  -0.010176
    24  H    0.003122   0.000115  -0.000294  -0.000067  -0.010176   0.445829
    25  H   -0.000003   0.000208  -0.000025  -0.002049  -0.003357   0.003761
    26  H   -0.000014  -0.000102   0.000003   0.000235   0.000780  -0.001202
    27  H   -0.000032   0.000018  -0.000042   0.000095  -0.000385   0.000609
    28  H   -0.000028  -0.000066   0.000008  -0.000724  -0.000337   0.000052
    29  H    0.002020  -0.000346   0.000067  -0.000070  -0.000333   0.001921
    30  H    0.000435   0.000242   0.001252  -0.000293  -0.000203  -0.000308
              25         26         27         28         29         30
     1  C    0.000000   0.000000   0.000000  -0.000000  -0.000011   0.000035
     2  C   -0.000002  -0.000001  -0.000006   0.000001   0.000190  -0.000136
     3  C    0.000104   0.000040   0.000073  -0.000115  -0.005976   0.000611
     4  C   -0.000286  -0.000196  -0.000766   0.000052   0.005211  -0.002944
     5  N   -0.000592   0.003756   0.001702   0.001406  -0.024380  -0.021689
     6  C    0.001182   0.000647  -0.000131   0.001787   0.009355  -0.007417
     7  C   -0.032214  -0.031512   0.007479   0.001850  -0.006331   0.012340
     8  C    0.425321   0.410582  -0.029663  -0.023441   0.006518   0.002590
     9  C   -0.043232  -0.033783   0.410974   0.401913  -0.041074  -0.025843
    10  C   -0.000872   0.008830  -0.030424  -0.027617   0.403038   0.393192
    11  H   -0.000000  -0.000000  -0.000000   0.000000  -0.000000  -0.000001
    12  H   -0.000000   0.000000  -0.000000   0.000000   0.000002   0.000001
    13  H   -0.000000  -0.000000   0.000000  -0.000000   0.000003   0.000002
    14  H    0.000000   0.000000   0.000000  -0.000000  -0.000009  -0.000006
    15  H   -0.000000   0.000000   0.000000   0.000000   0.000182   0.000026
    16  H   -0.000002  -0.000000  -0.000001  -0.000000   0.000468   0.000361
    17  H    0.000001   0.000002   0.000012   0.000028  -0.000483  -0.002442
    18  H   -0.000048   0.000025   0.000001   0.000027   0.000303  -0.000305
    19  H   -0.000003  -0.000014  -0.000032  -0.000028   0.002020   0.000435
    20  H    0.000208  -0.000102   0.000018  -0.000066  -0.000346   0.000242
    21  H   -0.000025   0.000003  -0.000042   0.000008   0.000067   0.001252
    22  H   -0.002049   0.000235   0.000095  -0.000724  -0.000070  -0.000293
    23  H   -0.003357   0.000780  -0.000385  -0.000337  -0.000333  -0.000203
    24  H    0.003761  -0.001202   0.000609   0.000052   0.001921  -0.000308
    25  H    0.463774  -0.005007   0.002679  -0.004397  -0.000034  -0.000201
    26  H   -0.005007   0.462010  -0.003998   0.001351  -0.000033  -0.000280
    27  H    0.002679  -0.003998   0.473623  -0.009470  -0.004304   0.002132
    28  H   -0.004397   0.001351  -0.009470   0.476543   0.003635  -0.003808
    29  H   -0.000034  -0.000033  -0.004304   0.003635   0.441148  -0.011760
    30  H   -0.000201  -0.000280   0.002132  -0.003808  -0.011760   0.443703
 Mulliken charges:
               1
     1  C   -0.395657
     2  C   -0.258485
     3  C   -0.252157
     4  C   -0.203708
     5  N   -0.150913
     6  C   -0.305104
     7  C   -0.229185
     8  C   -0.305611
     9  C   -0.262412
    10  C   -0.264158
    11  H    0.148617
    12  H    0.134230
    13  H    0.135092
    14  H    0.140992
    15  H    0.138331
    16  H    0.159936
    17  H    0.157977
    18  H    0.197403
    19  H    0.192687
    20  H    0.197928
    21  H    0.208200
    22  H    0.199948
    23  H    0.214050
    24  H    0.215866
    25  H    0.195292
    26  H    0.187865
    27  H    0.179827
    28  H    0.181350
    29  H    0.221084
    30  H    0.220715
 Sum of Mulliken charges =   1.00000
 Mulliken charges with hydrogens summed into heavy atoms:
               1
     1  C    0.022282
     2  C    0.020838
     3  C    0.065757
     4  C    0.186381
     5  N   -0.150913
     6  C    0.300972
     7  C    0.200731
     8  C    0.077546
     9  C    0.098765
    10  C    0.177641
 Electronic spatial extent (au):  <R**2>=           2274.7263
 Charge=              1.0000 electrons
 Dipole moment (field-independent basis, Debye):
    X=             -3.8820    Y=             -1.0951    Z=              0.2456  Tot=              4.0409
 Quadrupole moment (field-independent basis, Debye-Ang):
   XX=            -47.1065   YY=            -56.0477   ZZ=            -56.5534
   XY=             -0.1737   XZ=             -0.2816   YZ=             -1.3010
 Traceless Quadrupole moment (field-independent basis, Debye-Ang):
   XX=              6.1294   YY=             -2.8118   ZZ=             -3.3176
   XY=             -0.1737   XZ=             -0.2816   YZ=             -1.3010
 Octapole moment (field-independent basis, Debye-Ang**2):
  XXX=            -30.0100  YYY=             -5.0416  ZZZ=              3.7070  XYY=            -10.3632
  XXY=             -1.0747  XXZ=             -6.9181  XZZ=            -11.9260  YZZ=             -3.4251
  YYZ=              2.0259  XYZ=              0.3590
 Hexadecapole moment (field-independent basis, Debye-Ang**3):
 XXXX=          -2316.3794 YYYY=           -317.2023 ZZZZ=           -272.5844 XXXY=            -13.0916
 XXXZ=             -7.1083 YYYX=             -0.9317 YYYZ=             -4.1510 ZZZX=              0.7074
 ZZZY=             -7.7432 XXYY=           -449.0667 XXZZ=           -432.1207 YYZZ=            -97.6874
 XXYZ=             -6.4792 YYXZ=              0.1035 ZZXY=              0.7124
 N-N= 5.858043724274D+02 E-N=-2.106198448154D+03  KE= 4.074086988268D+02
 No NMR shielding tensors so no spin-rotation constants.
 Leave Link  601 at Tue Feb 23 00:11:31 2021, MaxMem=   104857600 cpu:               7.4 elap:               0.3
 (Enter /sw/arch/RedHatEnterpriseServer7/EB_production/2019/software/Gaussian/g16.c01/l701.exe)
 ... and contract with generalized density number  0.
 Compute integral first derivatives.
 R6Disp: Adding Grimme-D3 dispersion energy 1st derivatives to the gradient.
 PrsmSu:  requested number of processors reduced to:  28 ShMem   1 Linda.
 D1PCM: PCM CHGder 1st derivatives, ID1Alg=3 FixD1E=F DoIter=F DoCFld=F I1PDM=0.
 GePol: Maximum number of non-zero 1st derivatives   =     229
 CoulSu:  requested number of processors reduced to:  28 ShMem   1 Linda.
 CoulSu:  requested number of processors reduced to:  29 ShMem   1 Linda.
 Leave Link  701 at Tue Feb 23 00:11:32 2021, MaxMem=   104857600 cpu:              31.1 elap:               1.1
 (Enter /sw/arch/RedHatEnterpriseServer7/EB_production/2019/software/Gaussian/g16.c01/l702.exe)
 L702 exits ... SP integral derivatives will be done elsewhere.
 Leave Link  702 at Tue Feb 23 00:11:32 2021, MaxMem=   104857600 cpu:               0.7 elap:               0.1
 (Enter /sw/arch/RedHatEnterpriseServer7/EB_production/2019/software/Gaussian/g16.c01/l703.exe)
 Integral derivatives from FoFJK, PRISM(SPDF).
 Compute integral first derivatives, UseDBF=F ICtDFT=           0.
 Calling FoFJK, ICntrl=      2527 FMM=F ISym2X=0 I1Cent= 0 IOpClX= 0 NMat=1 NMatS=1 NMatT=0.
 FoFJK:  IHMeth= 1 ICntrl=    2527 DoSepK=F KAlg= 0 I1Cent=           0 FoldK=F
 IRaf=         0 NMat=       1 IRICut=       1 DoRegI=T DoRafI=F ISym2E= 0 IDoP0=0 IntGTp=1.
 FoFCou: FMM=F IPFlag=           0 FMFlag=      100000 FMFlg1=         800
         NFxFlg=           0 DoJE=F BraDBF=F KetDBF=F FulRan=T
         wScrn=  0.000000 ICntrl=      2527 IOpCl=  0 I1Cent=           0 NGrid=           0
         NMat0=    1 NMatS0=      1 NMatT0=    0 NMatD0=    1 NMtDS0=    0 NMtDT0=    0
 Symmetry not used in FoFCou.
 Leave Link  703 at Tue Feb 23 00:11:36 2021, MaxMem=   104857600 cpu:             109.6 elap:               3.5
 (Enter /sw/arch/RedHatEnterpriseServer7/EB_production/2019/software/Gaussian/g16.c01/l716.exe)
 Dipole        =-1.52728901D+00-4.30830729D-01 9.66343463D-02
 ***** Axes restored to original set *****
 -------------------------------------------------------------------
 Center     Atomic                   Forces (Hartrees/Bohr)
 Number     Number              X              Y              Z
 -------------------------------------------------------------------
      1        6          -0.012301876   -0.001596155    0.006325165
      2        6          -0.001630444   -0.007481580   -0.004208653
      3        6          -0.007002090   -0.000835223    0.004567457
      4        6           0.022165336    0.015443278   -0.005430009
      5        7           0.000065727    0.003923620   -0.002964065
      6        6          -0.003121502    0.000165042   -0.009024014
      7        6          -0.025790575   -0.001345660    0.019033817
      8        6           0.002491011    0.004248317   -0.009827616
      9        6          -0.001796375    0.001881622   -0.004339413
     10        6           0.011442012   -0.027201442    0.005723861
     11        1           0.003451219    0.003354890    0.000291722
     12        1           0.000293160    0.000254474   -0.006510468
     13        1           0.003571357   -0.004824556   -0.000748899
     14        1          -0.003332672    0.004612642    0.001782948
     15        1          -0.000957235    0.000176524    0.006293251
     16        1          -0.000953045   -0.001289415   -0.005483559
     17        1           0.003192851   -0.005454415   -0.000643120
     18        1          -0.008198723   -0.002602571   -0.000178266
     19        1          -0.004908522   -0.006743086    0.004309028
     20        1           0.001348371    0.004413126    0.005987478
     21        1           0.006784672   -0.000181873    0.003860536
     22        1          -0.000321198   -0.004308234    0.008160134
     23        1           0.004680346    0.004894613   -0.006732808
     24        1           0.010951048    0.003587526   -0.004802526
     25        1          -0.003976825   -0.000948464   -0.000097023
     26        1          -0.001898303    0.002471406    0.001289817
     27        1           0.003925592   -0.001304036   -0.000097246
     28        1           0.000899601   -0.002345577   -0.000424924
     29        1           0.000928864    0.011281777   -0.000793834
     30        1          -0.000001781    0.007753429   -0.005318771
 -------------------------------------------------------------------
 Cartesian Forces:  Max     0.027201442 RMS     0.007014060
 Leave Link  716 at Tue Feb 23 00:11:36 2021, MaxMem=   104857600 cpu:               0.7 elap:               0.0
[...]
 Alpha virt. eigenvalues --    0.47518   0.48347   0.48973   0.50578   0.51059
 Alpha virt. eigenvalues --    0.51353   0.53676   0.54568   0.56962   0.58826
 Alpha virt. eigenvalues --    0.59772   0.62672   0.63965   0.65363   0.66897
 Alpha virt. eigenvalues --    0.68321   0.69312   0.73155   0.76531   0.81020
 Alpha virt. eigenvalues --    1.00638   1.06175   1.11497   1.11939   1.16569
 Alpha virt. eigenvalues --    1.17471   1.19821   1.20217   1.20507   1.21326
 Alpha virt. eigenvalues --    1.21673   1.22498   1.22789   1.23516   1.23969
 Alpha virt. eigenvalues --    1.24524   1.25185   1.26194   1.27639   1.28296
 Alpha virt. eigenvalues --    1.28948   1.29389   1.30813   1.31069   1.32282
 Alpha virt. eigenvalues --    1.32878   1.33354   1.34236   1.34596   1.35259
 Alpha virt. eigenvalues --    1.36786   1.37338   1.40746   1.42802   1.43270
 Alpha virt. eigenvalues --    1.43904   1.44142   1.44743   1.46253   1.48229
 Alpha virt. eigenvalues --    1.50188   1.50741   1.53673   1.54915   1.56009
 Alpha virt. eigenvalues --    1.56973   1.58133   1.59960   1.61699   1.62145
 Alpha virt. eigenvalues --    1.63726   1.65210   1.65497   1.66286   1.67157
 Alpha virt. eigenvalues --    1.68175   1.68635   1.69083   1.71655   1.71929
 Alpha virt. eigenvalues --    1.73001   1.73101   1.73440   1.74145   1.74405
 Alpha virt. eigenvalues --    1.75074   1.76039   1.76618   1.76973   1.79193
 Alpha virt. eigenvalues --    1.80203   1.80479   1.81609   1.82348   1.84572
 Alpha virt. eigenvalues --    1.84627   1.85808   1.86770   1.87305   1.89785
 Alpha virt. eigenvalues --    1.93848   1.93981   1.96129   1.98196   2.00780
 Alpha virt. eigenvalues --    2.02510   2.04588   2.05476   2.06471   2.09526
 Alpha virt. eigenvalues --    2.11043   2.14883   2.16724   2.18180   2.19177
 Alpha virt. eigenvalues --    2.21216   2.22311   2.23253   2.25092   2.27628
 Alpha virt. eigenvalues --    2.29254   2.30682   2.32731   2.34031   2.34964
 Alpha virt. eigenvalues --    2.35229   2.36908   2.38353   2.38665   2.41809
 Alpha virt. eigenvalues --    2.42776   2.44294   2.45766   2.47265   2.48838
 Alpha virt. eigenvalues --    2.49257   2.50371   2.51719   2.53186   2.53471
 Alpha virt. eigenvalues --    2.55607   2.57218   2.58055   2.59225   2.59995
 Alpha virt. eigenvalues --    2.60205   2.60998   2.62579   2.63033   2.64112
 Alpha virt. eigenvalues --    2.66295   2.68230   2.69253   2.70390   2.73165
 Alpha virt. eigenvalues --    2.75418   2.75862   2.79503   2.83834   2.88003
 Alpha virt. eigenvalues --    2.91258   2.95594   2.97057   2.98328   3.00135
 Alpha virt. eigenvalues --    3.05149   3.07521   3.09372   3.11185   3.14128
 Alpha virt. eigenvalues --    3.16700   3.20872   3.21975   3.23617   3.24597
 Alpha virt. eigenvalues --    3.25980   3.27976   3.28013   3.29945   3.30625
 Alpha virt. eigenvalues --    3.31810   3.33689   3.35552   3.36377   3.40371
 Alpha virt. eigenvalues --    3.41682   3.57052   3.60970   3.62951   3.64437
 Alpha virt. eigenvalues --   21.72407  21.73596  21.77551  21.79385  21.83594
 Alpha virt. eigenvalues --   21.85571  21.88469  21.90248  21.92471  31.73211
          Condensed to atoms (all electrons):
               1          2          3          4          5          6
     1  C    5.069244   0.268597  -0.072134   0.014712  -0.000751   0.000101
     2  C    0.268597   5.124164   0.237915  -0.031978   0.008741  -0.000837
     3  C   -0.072134   0.237915   5.286577   0.142525  -0.029975   0.006788
     4  C    0.014712  -0.031978   0.142525   5.448045   0.173079  -0.080781
     5  N   -0.000751   0.008741  -0.029975   0.173079   6.681863   0.222379
     6  C    0.000101  -0.000837   0.006788  -0.080781   0.222379   5.174860
     7  C    0.000119  -0.000982   0.027705  -0.106211   0.226257  -0.069038
     8  C   -0.000010   0.000156  -0.004178   0.013254  -0.049884  -0.012093
     9  C    0.000016  -0.000065   0.004523   0.014011  -0.048980   0.006441
    10  C   -0.000273  -0.001561  -0.017624  -0.077911   0.202700  -0.106255
    11  H    0.398526  -0.040983   0.013899  -0.000718   0.000014   0.000003
    12  H    0.410709  -0.040654  -0.008431  -0.000597  -0.000014   0.000020
    13  H    0.407232  -0.041000  -0.005893  -0.000533   0.000016  -0.000038
    14  H   -0.039309   0.414998  -0.042633  -0.005632   0.000197  -0.000657
    15  H   -0.034530   0.423600  -0.049724  -0.007726  -0.000385   0.000277
    16  H   -0.000431  -0.026531   0.411276  -0.042012  -0.006733   0.014928
    17  H   -0.002624  -0.032382   0.417252  -0.048814  -0.002149  -0.008182
    18  H   -0.000368  -0.003112  -0.030930   0.401061  -0.017451  -0.015248
    19  H    0.000092  -0.000115  -0.030970   0.407543  -0.020590   0.011847
    20  H   -0.000030  -0.000043  -0.005441  -0.000082  -0.019781   0.385068
    21  H    0.000113  -0.000035   0.005322  -0.018246  -0.020075   0.395932
    22  H   -0.000000   0.000019   0.000048   0.009948  -0.017469   0.381985
    23  H   -0.000002  -0.000036  -0.000130  -0.006911  -0.017626  -0.008050
    24  H    0.000005  -0.000143   0.001456  -0.004456  -0.028598   0.009553
    25  H    0.000000  -0.000002   0.000085  -0.000020   0.000185   0.002700
    26  H    0.000000  -0.000003   0.000035  -0.000526   0.003283   0.000733
    27  H    0.000000  -0.000004   0.000017  -0.000603   0.003864   0.000339
    28  H   -0.000000  -0.000000  -0.000201   0.000048  -0.000432   0.002690
    29  H   -0.000013   0.000096  -0.006103   0.004328  -0.028308   0.011271
    30  H    0.000080  -0.000123   0.001183  -0.005050  -0.020415  -0.009590
               7          8          9         10         11         12
     1  C    0.000119  -0.000010   0.000016  -0.000273   0.398526   0.410709
     2  C   -0.000982   0.000156  -0.000065  -0.001561  -0.040983  -0.040654
     3  C    0.027705  -0.004178   0.004523  -0.017624   0.013899  -0.008431
     4  C   -0.106211   0.013254   0.014011  -0.077911  -0.000718  -0.000597
     5  N    0.226257  -0.049884  -0.048980   0.202700   0.000014  -0.000014
     6  C   -0.069038  -0.012093   0.006441  -0.106255   0.000003   0.000020
     7  C    5.341094   0.246076  -0.038420  -0.146721  -0.000001  -0.000002
     8  C    0.246076   5.144816   0.235554  -0.024011   0.000000   0.000000
     9  C   -0.038420   0.235554   5.180666   0.219428  -0.000000  -0.000000
    10  C   -0.146721  -0.024011   0.219428   5.442818   0.000002  -0.000024
    11  H   -0.000001   0.000000  -0.000000   0.000002   0.533496  -0.024061
    12  H   -0.000002   0.000000  -0.000000  -0.000024  -0.024061   0.552285
    13  H   -0.000003   0.000000   0.000001   0.000051  -0.024331  -0.031838
    14  H   -0.000012   0.000001   0.000003   0.000395  -0.002654  -0.007192
    15  H   -0.000007  -0.000004  -0.000009  -0.000946  -0.002357   0.007691
    16  H   -0.000434  -0.000098   0.000187  -0.007650  -0.000084   0.005429
    17  H   -0.000623   0.000083   0.000155   0.019327  -0.000183  -0.000702
    18  H   -0.008020   0.001543  -0.001474   0.014718   0.000011   0.000108
    19  H   -0.005848  -0.001093   0.001753  -0.025266   0.000010  -0.000003
    20  H   -0.008391   0.002228  -0.002360   0.012665   0.000000   0.000002
    21  H    0.009621  -0.001633  -0.000141  -0.003955  -0.000001  -0.000025
    22  H    0.000164  -0.002041   0.005644  -0.006967   0.000000   0.000001
    23  H    0.387733  -0.023220   0.004991   0.011141   0.000000   0.000000
    24  H    0.415366  -0.047953   0.007223  -0.008895  -0.000000  -0.000000
    25  H   -0.020435   0.402795  -0.026871  -0.000880  -0.000000  -0.000000
    26  H   -0.031043   0.403001  -0.021694   0.003263  -0.000000   0.000000
    27  H    0.004503  -0.021104   0.397974  -0.027308  -0.000000  -0.000000
    28  H   -0.002778  -0.030297   0.413377  -0.028126   0.000000   0.000000
    29  H   -0.008105   0.004875  -0.040056   0.402567   0.000000   0.000001
    30  H    0.011843   0.005031  -0.023054   0.389789  -0.000001   0.000004
              13         14         15         16         17         18
     1  C    0.407232  -0.039309  -0.034530  -0.000431  -0.002624  -0.000368
     2  C   -0.041000   0.414998   0.423600  -0.026531  -0.032382  -0.003112
     3  C   -0.005893  -0.042633  -0.049724   0.411276   0.417252  -0.030930
     4  C   -0.000533  -0.005632  -0.007726  -0.042012  -0.048814   0.401061
     5  N    0.000016   0.000197  -0.000385  -0.006733  -0.002149  -0.017451
     6  C   -0.000038  -0.000657   0.000277   0.014928  -0.008182  -0.015248
     7  C   -0.000003  -0.000012  -0.000007  -0.000434  -0.000623  -0.008020
     8  C    0.000000   0.000001  -0.000004  -0.000098   0.000083   0.001543
     9  C    0.000001   0.000003  -0.000009   0.000187   0.000155  -0.001474
    10  C    0.000051   0.000395  -0.000946  -0.007650   0.019327   0.014718
    11  H   -0.024331  -0.002654  -0.002357  -0.000084  -0.000183   0.000011
    12  H   -0.031838  -0.007192   0.007691   0.005429  -0.000702   0.000108
    13  H    0.554786   0.008038  -0.007118  -0.001016   0.005335  -0.000007
    14  H    0.008038   0.565350  -0.035491  -0.006542   0.007449   0.003459
    15  H   -0.007118  -0.035491   0.559637   0.007456  -0.006313   0.000326
    16  H   -0.001016  -0.006542   0.007456   0.523925  -0.028010  -0.004111
    17  H    0.005335   0.007449  -0.006313  -0.028010   0.520212   0.004319
    18  H   -0.000007   0.003459   0.000326  -0.004111   0.004319   0.467917
    19  H    0.000068   0.000014   0.003668   0.004202  -0.003073  -0.019606
    20  H    0.000002   0.000116  -0.000012  -0.001625   0.000434   0.002771
    21  H    0.000018   0.000082  -0.000055  -0.004315   0.001036   0.000857
    22  H   -0.000000  -0.000004   0.000002   0.000234  -0.000015   0.000004
    23  H   -0.000000  -0.000010   0.000005   0.000047  -0.000007   0.003515
    24  H    0.000000   0.000033  -0.000014  -0.000011   0.000032  -0.001536
    25  H   -0.000000   0.000000   0.000000  -0.000000   0.000001  -0.000062
    26  H   -0.000000   0.000000  -0.000000  -0.000001   0.000003   0.000056
    27  H    0.000000   0.000000   0.000000  -0.000001   0.000027   0.000013
    28  H   -0.000000   0.000000  -0.000000  -0.000007   0.000037   0.000045
    29  H    0.000002  -0.000015   0.000190   0.000462  -0.001313   0.000294
    30  H   -0.000005  -0.000019   0.000060   0.000566  -0.002479  -0.000335
              19         20         21         22         23         24
     1  C    0.000092  -0.000030   0.000113  -0.000000  -0.000002   0.000005
     2  C   -0.000115  -0.000043  -0.000035   0.000019  -0.000036  -0.000143
     3  C   -0.030970  -0.005441   0.005322   0.000048  -0.000130   0.001456
     4  C    0.407543  -0.000082  -0.018246   0.009948  -0.006911  -0.004456
     5  N   -0.020590  -0.019781  -0.020075  -0.017469  -0.017626  -0.028598
     6  C    0.011847   0.385068   0.395932   0.381985  -0.008050   0.009553
     7  C   -0.005848  -0.008391   0.009621   0.000164   0.387733   0.415366
     8  C   -0.001093   0.002228  -0.001633  -0.002041  -0.023220  -0.047953
     9  C    0.001753  -0.002360  -0.000141   0.005644   0.004991   0.007223
    10  C   -0.025266   0.012665  -0.003955  -0.006967   0.011141  -0.008895
    11  H    0.000010   0.000000  -0.000001   0.000000   0.000000  -0.000000
    12  H   -0.000003   0.000002  -0.000025   0.000001   0.000000  -0.000000
    13  H    0.000068   0.000002   0.000018  -0.000000  -0.000000   0.000000
    14  H    0.000014   0.000116   0.000082  -0.000004  -0.000010   0.000033
    15  H    0.003668  -0.000012  -0.000055   0.000002   0.000005  -0.000014
    16  H    0.004202  -0.001625  -0.004315   0.000234   0.000047  -0.000011
    17  H   -0.003073   0.000434   0.001036  -0.000015  -0.000007   0.000032
    18  H   -0.019606   0.002771   0.000857   0.000004   0.003515  -0.001536
    19  H    0.475465  -0.000070  -0.000134  -0.000283   0.000049   0.005127
    20  H   -0.000070   0.470908  -0.018333  -0.017021   0.001345   0.000266
    21  H   -0.000134  -0.018333   0.465583  -0.018538   0.000307  -0.000435
    22  H   -0.000283  -0.017021  -0.018538   0.455339  -0.000335  -0.000161
    23  H    0.000049   0.001345   0.000307  -0.000335   0.449040  -0.012021
    24  H    0.005127   0.000266  -0.000435  -0.000161  -0.012021   0.449287
    25  H   -0.000011   0.000082  -0.000146  -0.001542  -0.004420   0.003750
    26  H   -0.000042  -0.000101   0.000015   0.000248   0.002565  -0.004255
    27  H   -0.000067   0.000024  -0.000107   0.000212  -0.000334   0.000330
    28  H   -0.000027  -0.000110   0.000282  -0.002495  -0.000144  -0.000034
    29  H    0.003890  -0.000508   0.000259  -0.000208  -0.000172   0.002085
    30  H    0.000391   0.000240   0.001062   0.000217  -0.000263  -0.000306
              25         26         27         28         29         30
     1  C    0.000000   0.000000   0.000000  -0.000000  -0.000013   0.000080
     2  C   -0.000002  -0.000003  -0.000004  -0.000000   0.000096  -0.000123
     3  C    0.000085   0.000035   0.000017  -0.000201  -0.006103   0.001183
     4  C   -0.000020  -0.000526  -0.000603   0.000048   0.004328  -0.005050
     5  N    0.000185   0.003283   0.003864  -0.000432  -0.028308  -0.020415
     6  C    0.002700   0.000733   0.000339   0.002690   0.011271  -0.009590
     7  C   -0.020435  -0.031043   0.004503  -0.002778  -0.008105   0.011843
     8  C    0.402795   0.403001  -0.021104  -0.030297   0.004875   0.005031
     9  C   -0.026871  -0.021694   0.397974   0.413377  -0.040056  -0.023054
    10  C   -0.000880   0.003263  -0.027308  -0.028126   0.402567   0.389789
    11  H   -0.000000  -0.000000  -0.000000   0.000000   0.000000  -0.000001
    12  H   -0.000000   0.000000  -0.000000   0.000000   0.000001   0.000004
    13  H   -0.000000  -0.000000   0.000000  -0.000000   0.000002  -0.000005
    14  H    0.000000   0.000000   0.000000   0.000000  -0.000015  -0.000019
    15  H    0.000000  -0.000000   0.000000  -0.000000   0.000190   0.000060
    16  H   -0.000000  -0.000001  -0.000001  -0.000007   0.000462   0.000566
    17  H    0.000001   0.000003   0.000027   0.000037  -0.001313  -0.002479
    18  H   -0.000062   0.000056   0.000013   0.000045   0.000294  -0.000335
    19  H   -0.000011  -0.000042  -0.000067  -0.000027   0.003890   0.000391
    20  H    0.000082  -0.000101   0.000024  -0.000110  -0.000508   0.000240
    21  H   -0.000146   0.000015  -0.000107   0.000282   0.000259   0.001062
    22  H   -0.001542   0.000248   0.000212  -0.002495  -0.000208   0.000217
    23  H   -0.004420   0.002565  -0.000334  -0.000144  -0.000172  -0.000263
    24  H    0.003750  -0.004255   0.000330  -0.000034   0.002085  -0.000306
    25  H    0.483884  -0.015589   0.002209  -0.004867  -0.000049  -0.000224
    26  H   -0.015589   0.490614  -0.005536   0.002577   0.000602  -0.000322
    27  H    0.002209  -0.005536   0.486084  -0.013420  -0.004357   0.001905
    28  H   -0.004867   0.002577  -0.013420   0.477560   0.003711  -0.003640
    29  H   -0.000049   0.000602  -0.004357   0.003711   0.451115  -0.012056
    30  H   -0.000224  -0.000322   0.001905  -0.003640  -0.012056   0.441628
 Mulliken charges:
               1
     1  C   -0.419070
     2  C   -0.257697
     3  C   -0.252239
     4  C   -0.189748
     5  N   -0.192960
     6  C   -0.317145
     7  C   -0.223406
     8  C   -0.241796
     9  C   -0.288822
    10  C   -0.234490
    11  H    0.149416
    12  H    0.137295
    13  H    0.136234
    14  H    0.140032
    15  H    0.141779
    16  H    0.160902
    17  H    0.161163
    18  H    0.201243
    19  H    0.193077
    20  H    0.197760
    21  H    0.205685
    22  H    0.213014
    23  H    0.212943
    24  H    0.214305
    25  H    0.179426
    26  H    0.172114
    27  H    0.175338
    28  H    0.186252
    29  H    0.215515
    30  H    0.223882
 Sum of Mulliken charges =   1.00000
 Mulliken charges with hydrogens summed into heavy atoms:
               1
     1  C    0.003875
     2  C    0.024113
     3  C    0.069826
     4  C    0.204571
     5  N   -0.192960
     6  C    0.299314
     7  C    0.203842
     8  C    0.109744
     9  C    0.072768
    10  C    0.204907
 Electronic spatial extent (au):  <R**2>=           2214.2916
 Charge=              1.0000 electrons
 Dipole moment (field-independent basis, Debye):
    X=             -3.9213    Y=             -0.9254    Z=              0.4699  Tot=              4.0563
 Quadrupole moment (field-independent basis, Debye-Ang):
   XX=            -49.8235   YY=            -57.2375   ZZ=            -56.6730
   XY=             -0.0832   XZ=             -0.3557   YZ=             -0.7973
 Traceless Quadrupole moment (field-independent basis, Debye-Ang):
   XX=              4.7546   YY=             -2.6595   ZZ=             -2.0950
   XY=             -0.0832   XZ=             -0.3557   YZ=             -0.7973
 Octapole moment (field-independent basis, Debye-Ang**2):
  XXX=            -33.8712  YYY=             -3.9904  ZZZ=              4.1248  XYY=             -9.6593
  XXY=             -3.0033  XXZ=             -2.8687  XZZ=            -10.4715  YZZ=             -1.8018
  YYZ=              0.8984  XYZ=              0.3870
 Hexadecapole moment (field-independent basis, Debye-Ang**3):
 XXXX=          -2301.8748 YYYY=           -316.2759 ZZZZ=           -267.3285 XXXY=            -13.7074
 XXXZ=             -7.4807 YYYX=             -0.2320 YYYZ=             -5.5470 ZZZX=              0.2597
 ZZZY=             -3.1355 XXYY=           -443.5088 XXZZ=           -425.0232 YYZZ=           -100.5284
 XXYZ=             -3.9110 YYXZ=              1.8344 ZZXY=             -0.4020
 N-N= 5.904515983102D+02 E-N=-2.115162218838D+03  KE= 4.073604418248D+02
 Unable to Open any file for archive entry.
 1\1\GINC-TCN1716\SP\RBP86\TZVP\C9H20N1(1+)\ELENAA\23-Feb-2021\0\\# BP8
 6/TZVP SCRF=COSMORS geom=CHECKPOINT guess=CHECKPOINT\\COSMO-file for #
 PXELHGDYRQLRQO-UHFFFAOYSA-N\\1,1\C,0,4.6717812267,1.4440655888,-1.4752
 800092\C,0,3.451597532,1.4058022851,-0.5481425972\C,0,2.5213799724,0.2
 214792813,-0.8635783592\C,0,1.3106729612,0.2361500201,0.0639096345\N,0
 ,0.3757883835,-0.9566253397,-0.077924753\C,0,-0.1688646188,-1.04861453
 88,-1.4808421497\C,0,-0.77701212,-0.8453103258,0.9199500048\C,0,-1.310
 2001835,-2.2746866171,1.085501764\C,0,-0.134653829,-3.208057272,0.6686
 721658\C,0,1.032523554,-2.2728354855,0.330414804\H,0,5.3266538285,2.29
 41989056,-1.2334143774\H,0,4.3657398784,1.5427266993,-2.5286855995\H,0
 ,5.2673694946,0.5221087957,-1.3835214987\H,0,2.8847547242,2.3480266746
 ,-0.6386122209\H,0,3.782264531,1.3392216254,0.5022159901\H,0,2.2039237
 053,0.2868757553,-1.9157833928\H,0,3.081842443,-0.7198639309,-0.746342
 3527\H,0,0.6916539885,1.1282856618,-0.1084676892\H,0,1.6294688368,0.23
 87135099,1.116086986\H,0,-0.6243641226,-0.086702929,-1.7402529831\H,0,
 0.6483677949,-1.2812932719,-2.169868177\H,0,-0.9216165794,-1.841751721
 6,-1.5235267651\H,0,-1.5011747526,-0.1159075921,0.5400899034\H,0,-0.33
 84684696,-0.4642322964,1.8508642229\H,0,-2.1916975971,-2.4458348951,0.
 4550143391\H,0,-1.6160446382,-2.4356021573,2.1262733668\H,0,0.15852358
 58,-3.8933781185,1.4729820266\H,0,-0.4095235654,-3.8205346096,-0.19969
 75621\H,0,1.6469096492,-2.0470203009,1.2116130847\H,0,1.6791743863,-2.
 6237134007,-0.4802178058\\Version=ES64L-G16RevC.01\State=1-A\HF=-409.7
 25496\RMSD=2.002e-09\Dipole=-1.4370139,-0.6415264,0.265052\Quadrupole=
 1.4363146,-0.1359014,-1.3004132,2.4977524,-0.5697325,-1.1794486\PG=C01
  [X(C9H20N1)]\\@
 The archive entry for this job was punched.


 WHERE THERE IS MUCH DESIRE TO LEARN, THERE OF NECESSITY WILL BE
 MUCH ARGUING, MUCH WRITING, MANY OPINIONS; FOR OPINION IN GOOD MEN
 IS BUT KNOWLEDGE IN THE MAKING. -- JOHN MILTON.
 Job cpu time:       0 days  0 hours  9 minutes 26.2 seconds.
 Elapsed time:       0 days  0 hours  0 minutes 18.3 seconds.
 File lengths (MBytes):  RWF=     79 Int=      0 D2E=      0 Chk=     11 Scr=      1
 Normal termination of Gaussian 16 at Tue Feb 23 00:16:19 2021.
