 Entering Gaussian System, Link 0=g16
 Input=QEMXHQIAXOOASZ-UHFFFAOYSA-N.gjf
 Output=QEMXHQIAXOOASZ-UHFFFAOYSA-N.log
 Initial command:
 /sw/arch/RedHatEnterpriseServer7/EB_production/2019/software/Gaussian/g16.c01/l1.exe "/scratch-local/elenaa.9715947/Gau-30997.inp" -scrdir="/scratch-local/elenaa.9715947/"
 Entering Link 1 = /sw/arch/RedHatEnterpriseServer7/EB_production/2019/software/Gaussian/g16.c01/l1.exe PID=     30999.
  
 Copyright (c) 1988-2019, Gaussian, Inc.  All Rights Reserved.
  
 This is part of the Gaussian(R) 16 program.  It is based on
 the Gaussian(R) 09 system (copyright 2009, Gaussian, Inc.),
 the Gaussian(R) 03 system (copyright 2003, Gaussian, Inc.),
 the Gaussian(R) 98 system (copyright 1998, Gaussian, Inc.),
 the Gaussian(R) 94 system (copyright 1995, Gaussian, Inc.),
 the Gaussian 92(TM) system (copyright 1992, Gaussian, Inc.),
 the Gaussian 90(TM) system (copyright 1990, Gaussian, Inc.),
 the Gaussian 88(TM) system (copyright 1988, Gaussian, Inc.),
 the Gaussian 86(TM) system (copyright 1986, Carnegie Mellon
 University), and the Gaussian 82(TM) system (copyright 1983,
 Carnegie Mellon University). Gaussian is a federally registered
 trademark of Gaussian, Inc.
  
 This software contains proprietary and confidential information,
 including trade secrets, belonging to Gaussian, Inc.
  
 This software is provided under written license and may be
 used, copied, transmitted, or stored only in accord with that
 written license.
  
 The following legend is applicable only to US Government
 contracts under FAR:
  
                    RESTRICTED RIGHTS LEGEND
  
 Use, reproduction and disclosure by the US Government is
 subject to restrictions as set forth in subparagraphs (a)
 and (c) of the Commercial Computer Software - Restricted
 Rights clause in FAR 52.227-19.
  
 Gaussian, Inc.
 340 Quinnipiac St., Bldg. 40, Wallingford CT 06492
  
  
 ---------------------------------------------------------------
 Warning -- This program may not be used in any manner that
 competes with the business of Gaussian, Inc. or will provide
 assistance to any competitor of Gaussian, Inc.  The licensee
 of this program is prohibited from giving any competitor of
 Gaussian, Inc. access to this program.  By using this program,
 the user acknowledges that Gaussian, Inc. is engaged in the
 business of creating and licensing software in the field of
 computational chemistry and represents and warrants to the
 licensee that it is not a competitor of Gaussian, Inc. and that
 it will not use this program in any manner prohibited above.
 ---------------------------------------------------------------
  

 Cite this work as:
 Gaussian 16, Revision C.01,
 M. J. Frisch, G. W. Trucks, H. B. Schlegel, G. E. Scuseria, 
 M. A. Robb, J. R. Cheeseman, G. Scalmani, V. Barone, 
 G. A. Petersson, H. Nakatsuji, X. Li, M. Caricato, A. V. Marenich, 
 J. Bloino, B. G. Janesko, R. Gomperts, B. Mennucci, H. P. Hratchian, 
 J. V. Ortiz, A. F. Izmaylov, J. L. Sonnenberg, D. Williams-Young, 
 F. Ding, F. Lipparini, F. Egidi, J. Goings, B. Peng, A. Petrone, 
 T. Henderson, D. Ranasinghe, V. G. Zakrzewski, J. Gao, N. Rega, 
 G. Zheng, W. Liang, M. Hada, M. Ehara, K. Toyota, R. Fukuda, 
 J. Hasegawa, M. Ishida, T. Nakajima, Y. Honda, O. Kitao, H. Nakai, 
 T. Vreven, K. Throssell, J. A. Montgomery, Jr., J. E. Peralta, 
 F. Ogliaro, M. J. Bearpark, J. J. Heyd, E. N. Brothers, K. N. Kudin, 
 V. N. Staroverov, T. A. Keith, R. Kobayashi, J. Normand, 
 K. Raghavachari, A. P. Rendell, J. C. Burant, S. S. Iyengar, 
 J. Tomasi, M. Cossi, J. M. Millam, M. Klene, C. Adamo, R. Cammi, 
 J. W. Ochterski, R. L. Martin, K. Morokuma, O. Farkas, 
 J. B. Foresman, and D. J. Fox, Gaussian, Inc., Wallingford CT, 2019.
 
 ******************************************
 Gaussian 16:  ES64L-G16RevC.01  3-Jul-2019
                23-Feb-2021 
 ******************************************
 %chk=QEMXHQIAXOOASZ-UHFFFAOYSA-N.chk
 %NProcShared=32
 Will use up to   32 processors via shared memory.
 -------------------------------------------------------------
 #P BP86/TZVP EmpiricalDispersion=GD3 SCRF=(Solvent=Water) Opt
 -------------------------------------------------------------
 1/18=20,19=15,26=3,38=1/1,3;
 2/9=110,12=2,17=6,18=5,40=1/2;
 3/5=19,7=101,11=2,25=1,30=1,70=2201,71=1,72=1,74=404,124=31/1,2,3;
 4//1;
 5/5=2,38=5,53=1/2;
 6/7=2,8=2,9=2,10=2,28=1/1;
 7//1,2,3,16;
 1/18=20,19=15,26=3/3(2);
 2/9=110/2;
 99//99;
 2/9=110/2;
 3/5=19,7=101,11=2,25=1,30=1,70=2205,71=1,72=1,74=404,124=31/1,2,3;
 4/5=5,16=3,69=1/1;
 5/5=2,38=5,53=1/2;
 7//1,2,3,16;
 1/18=20,19=15,26=3/3(-5);
 2/9=110/2;
 6/7=2,8=2,9=2,10=2,19=2,28=1/1;
 99/9=1/99;
 Leave Link    1 at Tue Feb 23 00:11:09 2021, MaxMem=           0 cpu:               5.7 elap:               0.2
 (Enter /sw/arch/RedHatEnterpriseServer7/EB_production/2019/software/Gaussian/g16.c01/l101.exe)
 -------------------------------------
 Particle #QEMXHQIAXOOASZ-UHFFFAOYSA-N
 -------------------------------------
 Symbolic Z-matrix:
 Charge =  1 Multiplicity = 1
 C                     1.75904  -0.76628  -0.2651 
 N                     0.83937  -0.37159   0.86423 
 C                    -0.06919   0.743     0.40687 
 C                     1.65983   0.09875   2.04006 
 C                     0.00779  -1.56181   1.27508 
 H                     1.19538  -1.1133   -1.13637 
 H                     2.37836   0.07578  -0.58858 
 H                     2.43349  -1.57464   0.03312 
 H                     0.50272   1.6242    0.10081 
 H                    -0.75131   1.05453   1.2037 
 H                    -0.68026   0.43511  -0.44698 
 H                     2.27658   0.96324   1.77636 
 H                     2.3317   -0.68719   2.39806 
 H                     1.02255   0.39357   2.87924 
 H                    -0.60128  -1.92947   0.44374 
 H                    -0.67233  -1.31005   2.09442 
 H                     0.63683  -2.39081   1.61323 
 
 ITRead=  0  0  0  0  0  0  0  0  0  0  0  0  0  0  0  0  0
 MicOpt= -1 -1 -1 -1 -1 -1 -1 -1 -1 -1 -1 -1 -1 -1 -1 -1 -1
 NAtoms=     17 NQM=       17 NQMF=       0 NMMI=      0 NMMIF=      0
                NMic=       0 NMicF=      0.
                    Isotopes and Nuclear Properties:
 (Nuclear quadrupole moments (NQMom) in fm**2, nuclear magnetic moments (NMagM)
  in nuclear magnetons)

  Atom         1           2           3           4           5           6           7           8           9          10
 IAtWgt=          12          14          12          12          12           1           1           1           1           1
 AtmWgt=  12.0000000  14.0030740  12.0000000  12.0000000  12.0000000   1.0078250   1.0078250   1.0078250   1.0078250   1.0078250
 NucSpn=           0           2           0           0           0           1           1           1           1           1
 AtZEff=  -0.0000000  -0.0000000  -0.0000000  -0.0000000  -0.0000000  -0.0000000  -0.0000000  -0.0000000  -0.0000000  -0.0000000
 NQMom=    0.0000000   2.0440000   0.0000000   0.0000000   0.0000000   0.0000000   0.0000000   0.0000000   0.0000000   0.0000000
 NMagM=    0.0000000   0.4037610   0.0000000   0.0000000   0.0000000   2.7928460   2.7928460   2.7928460   2.7928460   2.7928460
 AtZNuc=   6.0000000   7.0000000   6.0000000   6.0000000   6.0000000   1.0000000   1.0000000   1.0000000   1.0000000   1.0000000

  Atom        11          12          13          14          15          16          17
 IAtWgt=           1           1           1           1           1           1           1
 AtmWgt=   1.0078250   1.0078250   1.0078250   1.0078250   1.0078250   1.0078250   1.0078250
 NucSpn=           1           1           1           1           1           1           1
 AtZEff=  -0.0000000  -0.0000000  -0.0000000  -0.0000000  -0.0000000  -0.0000000  -0.0000000
 NQMom=    0.0000000   0.0000000   0.0000000   0.0000000   0.0000000   0.0000000   0.0000000
 NMagM=    2.7928460   2.7928460   2.7928460   2.7928460   2.7928460   2.7928460   2.7928460
 AtZNuc=   1.0000000   1.0000000   1.0000000   1.0000000   1.0000000   1.0000000   1.0000000
 Leave Link  101 at Tue Feb 23 00:11:09 2021, MaxMem=   104857600 cpu:               2.9 elap:               0.1
 (Enter /sw/arch/RedHatEnterpriseServer7/EB_production/2019/software/Gaussian/g16.c01/l103.exe)

 GradGradGradGradGradGradGradGradGradGradGradGradGradGradGradGradGradGrad
 Berny optimization.
 Initialization pass.
                           ----------------------------
                           !    Initial Parameters    !
                           ! (Angstroms and Degrees)  !
 --------------------------                            --------------------------
 ! Name  Definition              Value          Derivative Info.                !
 --------------------------------------------------------------------------------
 ! R1    R(1,2)                  1.509          estimate D2E/DX2                !
 ! R2    R(1,6)                  1.0942         estimate D2E/DX2                !
 ! R3    R(1,7)                  1.0942         estimate D2E/DX2                !
 ! R4    R(1,8)                  1.0942         estimate D2E/DX2                !
 ! R5    R(2,3)                  1.509          estimate D2E/DX2                !
 ! R6    R(2,4)                  1.509          estimate D2E/DX2                !
 ! R7    R(2,5)                  1.509          estimate D2E/DX2                !
 ! R8    R(3,9)                  1.0942         estimate D2E/DX2                !
 ! R9    R(3,10)                 1.0942         estimate D2E/DX2                !
 ! R10   R(3,11)                 1.0942         estimate D2E/DX2                !
 ! R11   R(4,12)                 1.0942         estimate D2E/DX2                !
 ! R12   R(4,13)                 1.0942         estimate D2E/DX2                !
 ! R13   R(4,14)                 1.0942         estimate D2E/DX2                !
 ! R14   R(5,15)                 1.0942         estimate D2E/DX2                !
 ! R15   R(5,16)                 1.0942         estimate D2E/DX2                !
 ! R16   R(5,17)                 1.0942         estimate D2E/DX2                !
 ! A1    A(2,1,6)              111.4035         estimate D2E/DX2                !
 ! A2    A(2,1,7)              111.4032         estimate D2E/DX2                !
 ! A3    A(2,1,8)              111.4033         estimate D2E/DX2                !
 ! A4    A(6,1,7)              107.4718         estimate D2E/DX2                !
 ! A5    A(6,1,8)              107.4725         estimate D2E/DX2                !
 ! A6    A(7,1,8)              107.4715         estimate D2E/DX2                !
 ! A7    A(1,2,3)              109.4711         estimate D2E/DX2                !
 ! A8    A(1,2,4)              109.4713         estimate D2E/DX2                !
 ! A9    A(1,2,5)              109.4715         estimate D2E/DX2                !
 ! A10   A(3,2,4)              109.471          estimate D2E/DX2                !
 ! A11   A(3,2,5)              109.4709         estimate D2E/DX2                !
 ! A12   A(4,2,5)              109.4716         estimate D2E/DX2                !
 ! A13   A(2,3,9)              111.4034         estimate D2E/DX2                !
 ! A14   A(2,3,10)             111.4032         estimate D2E/DX2                !
 ! A15   A(2,3,11)             111.4034         estimate D2E/DX2                !
 ! A16   A(9,3,10)             107.472          estimate D2E/DX2                !
 ! A17   A(9,3,11)             107.4717         estimate D2E/DX2                !
 ! A18   A(10,3,11)            107.472          estimate D2E/DX2                !
 ! A19   A(2,4,12)             111.4042         estimate D2E/DX2                !
 ! A20   A(2,4,13)             111.4031         estimate D2E/DX2                !
 ! A21   A(2,4,14)             111.4033         estimate D2E/DX2                !
 ! A22   A(12,4,13)            107.4719         estimate D2E/DX2                !
 ! A23   A(12,4,14)            107.4719         estimate D2E/DX2                !
 ! A24   A(13,4,14)            107.4713         estimate D2E/DX2                !
 ! A25   A(2,5,15)             111.4032         estimate D2E/DX2                !
 ! A26   A(2,5,16)             111.4039         estimate D2E/DX2                !
 ! A27   A(2,5,17)             111.4028         estimate D2E/DX2                !
 ! A28   A(15,5,16)            107.4722         estimate D2E/DX2                !
 ! A29   A(15,5,17)            107.4714         estimate D2E/DX2                !
 ! A30   A(16,5,17)            107.4722         estimate D2E/DX2                !
 ! D1    D(6,1,2,3)            -59.9996         estimate D2E/DX2                !
 ! D2    D(6,1,2,4)           -179.9992         estimate D2E/DX2                !
 ! D3    D(6,1,2,5)             60.0001         estimate D2E/DX2                !
 ! D4    D(7,1,2,3)             60.0003         estimate D2E/DX2                !
 ! D5    D(7,1,2,4)            -59.9994         estimate D2E/DX2                !
 ! D6    D(7,1,2,5)            180.0            estimate D2E/DX2                !
 ! D7    D(8,1,2,3)            179.9996         estimate D2E/DX2                !
 ! D8    D(8,1,2,4)             60.0            estimate D2E/DX2                !
 ! D9    D(8,1,2,5)            -60.0007         estimate D2E/DX2                !
 ! D10   D(1,2,3,9)            -60.0001         estimate D2E/DX2                !
 ! D11   D(1,2,3,10)           179.9998         estimate D2E/DX2                !
 ! D12   D(1,2,3,11)            59.9998         estimate D2E/DX2                !
 ! D13   D(4,2,3,9)             59.9997         estimate D2E/DX2                !
 ! D14   D(4,2,3,10)           -60.0004         estimate D2E/DX2                !
 ! D15   D(4,2,3,11)           179.9996         estimate D2E/DX2                !
 ! D16   D(5,2,3,9)            179.9998         estimate D2E/DX2                !
 ! D17   D(5,2,3,10)            59.9997         estimate D2E/DX2                !
 ! D18   D(5,2,3,11)           -60.0003         estimate D2E/DX2                !
 ! D19   D(1,2,4,12)            59.9997         estimate D2E/DX2                !
 ! D20   D(1,2,4,13)           -60.0007         estimate D2E/DX2                !
 ! D21   D(1,2,4,14)          -179.9997         estimate D2E/DX2                !
 ! D22   D(3,2,4,12)           -60.0            estimate D2E/DX2                !
 ! D23   D(3,2,4,13)           179.9996         estimate D2E/DX2                !
 ! D24   D(3,2,4,14)            60.0006         estimate D2E/DX2                !
 ! D25   D(5,2,4,12)          -179.9997         estimate D2E/DX2                !
 ! D26   D(5,2,4,13)            59.9999         estimate D2E/DX2                !
 ! D27   D(5,2,4,14)           -59.9991         estimate D2E/DX2                !
 ! D28   D(1,2,5,15)           -59.9993         estimate D2E/DX2                !
 ! D29   D(1,2,5,16)          -180.0            estimate D2E/DX2                !
 ! D30   D(1,2,5,17)            59.9996         estimate D2E/DX2                !
 ! D31   D(3,2,5,15)            60.0005         estimate D2E/DX2                !
 ! D32   D(3,2,5,16)           -60.0002         estimate D2E/DX2                !
 ! D33   D(3,2,5,17)           179.9994         estimate D2E/DX2                !
 ! D34   D(4,2,5,15)          -179.9997         estimate D2E/DX2                !
 ! D35   D(4,2,5,16)            59.9996         estimate D2E/DX2                !
 ! D36   D(4,2,5,17)           -60.0008         estimate D2E/DX2                !
 --------------------------------------------------------------------------------
 Trust Radius=3.00D-01 FncErr=1.00D-07 GrdErr=1.00D-06 EigMax=2.50D+02 EigMin=1.00D-04
 Number of steps in this run=     92 maximum allowed number of steps=    102.
 GradGradGradGradGradGradGradGradGradGradGradGradGradGradGradGradGradGrad

 Leave Link  103 at Tue Feb 23 00:11:09 2021, MaxMem=   104857600 cpu:               0.4 elap:               0.0
 (Enter /sw/arch/RedHatEnterpriseServer7/EB_production/2019/software/Gaussian/g16.c01/l202.exe)
                          Input orientation:                          
 ---------------------------------------------------------------------
 Center     Atomic      Atomic             Coordinates (Angstroms)
 Number     Number       Type             X           Y           Z
 ---------------------------------------------------------------------
      1          6           0        1.759040   -0.766280   -0.265100
      2          7           0        0.839370   -0.371590    0.864230
      3          6           0       -0.069190    0.743000    0.406870
      4          6           0        1.659830    0.098750    2.040060
      5          6           0        0.007790   -1.561810    1.275080
      6          1           0        1.195380   -1.113300   -1.136370
      7          1           0        2.378360    0.075780   -0.588580
      8          1           0        2.433490   -1.574640    0.033120
      9          1           0        0.502720    1.624200    0.100810
     10          1           0       -0.751310    1.054530    1.203700
     11          1           0       -0.680260    0.435110   -0.446980
     12          1           0        2.276580    0.963240    1.776360
     13          1           0        2.331700   -0.687190    2.398060
     14          1           0        1.022550    0.393570    2.879240
     15          1           0       -0.601280   -1.929470    0.443740
     16          1           0       -0.672330   -1.310050    2.094420
     17          1           0        0.636830   -2.390810    1.613230
 ---------------------------------------------------------------------
                    Distance matrix (angstroms):
                    1          2          3          4          5
     1  C    0.000000
     2  N    1.508960   0.000000
     3  C    2.464121   1.508963   0.000000
     4  C    2.464119   1.508957   2.464118   0.000000
     5  C    2.464122   1.508955   2.464115   2.464121   0.000000
     6  H    1.094188   2.163164   2.725175   3.431397   2.725183
     7  H    1.094195   2.163166   2.725180   2.725172   3.431404
     8  H    1.094196   2.163167   3.431407   2.725177   2.725188
     9  H    2.725183   2.163174   1.094197   2.725177   3.431403
    10  H    3.431411   2.163174   1.094201   2.725181   2.725172
    11  H    2.725179   2.163172   1.094195   3.431403   2.725178
    12  H    2.725187   2.163175   2.725187   1.094194   3.431409
    13  H    2.725182   2.163166   3.431407   1.094201   2.725179
    14  H    3.431405   2.163167   2.725181   1.094197   2.725175
    15  H    2.725174   2.163163   2.725174   3.431404   1.094197
    16  H    3.431411   2.163172   2.725182   2.725187   1.094196
    17  H    2.725175   2.163163   3.431404   2.725183   1.094202
                    6          7          8          9         10
     6  H    0.000000
     7  H    1.764491   0.000000
     8  H    1.764499   1.764493   0.000000
     9  H    3.082904   2.528021   3.736982   0.000000
    10  H    3.736980   3.736985   4.292522   1.764506   0.000000
    11  H    2.528015   3.082909   3.736981   1.764497   1.764504
    12  H    3.736978   2.528020   3.082911   2.528026   3.082919
    13  H    3.736976   3.082908   2.528017   3.736984   3.736982
    14  H    4.292511   3.736976   3.736978   3.082912   2.528019
    15  H    2.528017   3.736973   3.082911   3.736976   3.082905
    16  H    3.736985   4.292519   3.736989   3.736984   2.528015
    17  H    3.082906   3.736972   2.528017   4.292517   3.736979
                   11         12         13         14         15
    11  H    0.000000
    12  H    3.736986   0.000000
    13  H    4.292518   1.764502   0.000000
    14  H    3.736981   1.764500   1.764497   0.000000
    15  H    2.528015   4.292520   3.736977   3.736977   0.000000
    16  H    3.082914   3.736988   3.082912   2.528019   1.764504
    17  H    3.736979   3.736983   2.528016   3.082910   1.764499
                   16         17
    16  H    0.000000
    17  H    1.764507   0.000000
 This structure is nearly, but not quite of a higher symmetry.
 Consider Symm=Loose if the higher symmetry is desired.
 Stoichiometry    C4H12N(1+)
 Framework group  C1[X(C4H12N)]
 Deg. of freedom    45
 Full point group                 C1      NOp   1
 Largest Abelian subgroup         C1      NOp   1
 Largest concise Abelian subgroup C1      NOp   1
                         Standard orientation:                         
 ---------------------------------------------------------------------
 Center     Atomic      Atomic             Coordinates (Angstroms)
 Number     Number       Type             X           Y           Z
 ---------------------------------------------------------------------
      1          6           0       -1.070484   -0.724013   -0.778994
      2          7           0        0.000000    0.000002   -0.000004
      3          6           0        0.342316   -0.790683    1.238789
      4          6           0       -0.504167    1.365383    0.398119
      5          6           0        1.232336    0.149308   -0.857910
      6          1           0       -0.737229   -1.720504   -1.084268
      7          1           0       -1.980688   -0.849698   -0.184860
      8          1           0       -1.343372   -0.176595   -1.686259
      9          1           0       -0.531252   -0.918103    1.885248
     10          1           0        1.117748   -0.292736    1.828729
     11          1           0        0.712209   -1.788908    0.985830
     12          1           0       -1.399686    1.293882    1.022775
     13          1           0       -0.762359    1.966983   -0.478630
     14          1           0        0.249311    1.919241    0.966256
     15          1           0        1.625305   -0.824544   -1.165243
     16          1           0        2.030844    0.671629   -0.322344
     17          1           0        1.019162    0.719365   -1.767233
 ---------------------------------------------------------------------
 Rotational constants (GHZ):           4.5698552           4.5698451           4.5698405
 Leave Link  202 at Tue Feb 23 00:11:09 2021, MaxMem=   104857600 cpu:               0.8 elap:               0.1
 (Enter /sw/arch/RedHatEnterpriseServer7/EB_production/2019/software/Gaussian/g16.c01/l301.exe)
 Standard basis: TZVP (5D, 7F)
 Ernie: Thresh=  0.10000D-02 Tol=  0.10000D-05 Strict=F.
 There are   172 symmetry adapted cartesian basis functions of A   symmetry.
 There are   167 symmetry adapted basis functions of A   symmetry.
   167 basis functions,   271 primitive gaussians,   172 cartesian basis functions
    21 alpha electrons       21 beta electrons
       nuclear repulsion energy       212.0466445032 Hartrees.
 IExCor=  404 DFT=T Ex=B Corr=P86 ExCW=0 ScaHFX=  0.000000
 ScaDFX=  1.000000  1.000000  1.000000  1.000000 ScalE2=  1.000000  1.000000
 IRadAn=      5 IRanWt=     -1 IRanGd=            0 ICorTp=0 IEmpDi=131
 NAtoms=   17 NActive=   17 NUniq=   17 SFac= 1.00D+00 NAtFMM=   60 NAOKFM=F Big=F
 Integral buffers will be    131072 words long.
 Raffenetti 2 integral format.
 Two-electron integral symmetry is turned on.
 R6Disp:  Grimme-D3 Dispersion energy=       -0.0146453991 Hartrees.
 Nuclear repulsion after empirical dispersion term =      212.0319991041 Hartrees.
 ------------------------------------------------------------------------------
 Polarizable Continuum Model (PCM)
 =================================
 Model                : PCM.
 Atomic radii         : UFF (Universal Force Field).
 Polarization charges : Total charges.
 Charge compensation  : None.
 Solution method      : On-the-fly selection.
 Cavity type          : Scaled VdW (van der Waals Surface) (Alpha=1.100).
 Cavity algorithm     : GePol (No added spheres)
                        Default sphere list used, NSphG=   17.
                        Lebedev-Laikov grids with approx.  5.0 points / Ang**2.
                        Smoothing algorithm: York/Karplus (Gamma=1.0000).
                        Polarization charges: spherical gaussians, with
                                              point-specific exponents (IZeta= 3).
                        Self-potential: point-specific (ISelfS= 7).
                        Self-field    : sphere-specific E.n sum rule (ISelfD= 2).
 1st derivatives      : Analytical E(r).r(x)/FMM algorithm (CHGder, D1EAlg=3).
                        Cavity 1st derivative terms included.
 Solvent              : Water, Eps=  78.355300 Eps(inf)=   1.777849
 ------------------------------------------------------------------------------
 Spheres list:
 ISph  on   Nord     Re0    Alpha      Xe            Ye            Ze
    1   C      1    1.9255  1.100     -1.070484     -0.724013     -0.778994
    2   N      2    1.8300  1.100      0.000000      0.000002     -0.000004
    3   C      3    1.9255  1.100      0.342316     -0.790683      1.238789
    4   C      4    1.9255  1.100     -0.504167      1.365383      0.398119
    5   C      5    1.9255  1.100      1.232336      0.149308     -0.857910
    6   H      6    1.4430  1.100     -0.737229     -1.720504     -1.084268
    7   H      7    1.4430  1.100     -1.980688     -0.849698     -0.184860
    8   H      8    1.4430  1.100     -1.343372     -0.176595     -1.686259
    9   H      9    1.4430  1.100     -0.531252     -0.918103      1.885248
   10   H     10    1.4430  1.100      1.117748     -0.292736      1.828729
   11   H     11    1.4430  1.100      0.712209     -1.788908      0.985830
   12   H     12    1.4430  1.100     -1.399686      1.293882      1.022775
   13   H     13    1.4430  1.100     -0.762359      1.966983     -0.478630
   14   H     14    1.4430  1.100      0.249311      1.919241      0.966256
   15   H     15    1.4430  1.100      1.625305     -0.824544     -1.165243
   16   H     16    1.4430  1.100      2.030844      0.671629     -0.322344
   17   H     17    1.4430  1.100      1.019162      0.719365     -1.767233
 ------------------------------------------------------------------------------
 GePol: Number of generator spheres                  =      17
 GePol: Total number of spheres                      =      17
 GePol: Number of exposed spheres                    =      17 (100.00%)
 GePol: Number of points                             =    1152
 GePol: Average weight of points                     =       0.14
 GePol: Minimum weight of points                     =   0.88D-10
 GePol: Maximum weight of points                     =    0.20577
 GePol: Number of points with low weight             =      65
 GePol: Fraction of low-weight points (<1% of avg)   =       5.64%
 GePol: Cavity surface area                          =    159.741 Ang**2
 GePol: Cavity volume                                =    151.758 Ang**3
 Leave Link  301 at Tue Feb 23 00:11:10 2021, MaxMem=   104857600 cpu:               1.7 elap:               0.1
 (Enter /sw/arch/RedHatEnterpriseServer7/EB_production/2019/software/Gaussian/g16.c01/l302.exe)
 NPDir=0 NMtPBC=     1 NCelOv=     1 NCel=       1 NClECP=     1 NCelD=      1
         NCelK=      1 NCelE2=     1 NClLst=     1 CellRange=     0.0.
 One-electron integrals computed using PRISM.
 One-electron integral symmetry used in STVInt
 PrsmSu:  requested number of processors reduced to:  29 ShMem   1 Linda.
 NBasis=   167 RedAO= T EigKep=  8.54D-04  NBF=   167
 NBsUse=   167 1.00D-06 EigRej= -1.00D+00 NBFU=   167
 Precomputing XC quadrature grid using
 IXCGrd= 4 IRadAn=           5 IRanWt=          -1 IRanGd=           0 AccXCQ= 0.00D+00.
 Generated NRdTot=       0 NPtTot=           0 NUsed=           0 NTot=          32
 NSgBfM=   172   172   172   172   172 MxSgAt=    17 MxSgA2=    17.
 Leave Link  302 at Tue Feb 23 00:11:10 2021, MaxMem=   104857600 cpu:               5.4 elap:               0.2
 (Enter /sw/arch/RedHatEnterpriseServer7/EB_production/2019/software/Gaussian/g16.c01/l303.exe)
 DipDrv:  MaxL=1.
 Leave Link  303 at Tue Feb 23 00:11:10 2021, MaxMem=   104857600 cpu:               1.3 elap:               0.1
 (Enter /sw/arch/RedHatEnterpriseServer7/EB_production/2019/software/Gaussian/g16.c01/l401.exe)
 ExpMin= 9.52D-02 ExpMax= 1.97D+04 ExpMxC= 6.73D+02 IAcc=3 IRadAn=         5 AccDes= 0.00D+00
 Harris functional with IExCor=  404 and IRadAn=       5 diagonalized for initial guess.
 HarFok:  IExCor=  404 AccDes= 0.00D+00 IRadAn=         5 IDoV= 1 UseB2=F ITyADJ=14
 ICtDFT=  3500011 ScaDFX=  1.000000  1.000000  1.000000  1.000000
 FoFCou: FMM=F IPFlag=           0 FMFlag=      100000 FMFlg1=           0
         NFxFlg=           0 DoJE=T BraDBF=F KetDBF=T FulRan=T
         wScrn=  0.000000 ICntrl=       500 IOpCl=  0 I1Cent=   200000004 NGrid=           0
         NMat0=    1 NMatS0=      1 NMatT0=    0 NMatD0=    1 NMtDS0=    0 NMtDT0=    0
 Petite list used in FoFCou.
 Harris En= -214.393001105635    
 JPrj=0 DoOrth=F DoCkMO=F.
 Leave Link  401 at Tue Feb 23 00:11:11 2021, MaxMem=   104857600 cpu:               9.1 elap:               0.3
 (Enter /sw/arch/RedHatEnterpriseServer7/EB_production/2019/software/Gaussian/g16.c01/l502.exe)
 Integral symmetry usage will be decided dynamically.
 Closed shell SCF:
 Using DIIS extrapolation, IDIIS=  1040.
 NGot=   104857600 LenX=   104790552 LenY=   104760527
 Requested convergence on RMS density matrix=1.00D-08 within 128 cycles.
 Requested convergence on MAX density matrix=1.00D-06.
 Requested convergence on             energy=1.00D-06.
 No special actions if energy rises.
 Fock matrices will be formed incrementally for  20 cycles.

 Cycle   1  Pass 1  IDiag  1:
 FoFJK:  IHMeth= 1 ICntrl=     500 DoSepK=F KAlg= 0 I1Cent=           0 FoldK=F
 IRaf= 990000000 NMat=       1 IRICut=       1 DoRegI=T DoRafI=F ISym2E= 0 IDoP0=0 IntGTp=1.
 FoFCou: FMM=F IPFlag=           0 FMFlag=      100000 FMFlg1=           0
         NFxFlg=           0 DoJE=T BraDBF=F KetDBF=F FulRan=T
         wScrn=  0.000000 ICntrl=       500 IOpCl=  0 I1Cent=           0 NGrid=           0
         NMat0=    1 NMatS0=      1 NMatT0=    0 NMatD0=    1 NMtDS0=    0 NMtDT0=    0
 Symmetry not used in FoFCou.
 Inv3:  Mode=1 IEnd=     3981312.
 Iteration    1 A*A^-1 deviation from unit magnitude is 2.89D-15 for    211.
 Iteration    1 A*A^-1 deviation from orthogonality  is 1.67D-15 for   1047    746.
 Iteration    1 A^-1*A deviation from unit magnitude is 3.11D-15 for    630.
 Iteration    1 A^-1*A deviation from orthogonality  is 1.57D-15 for    478    255.
 E= -214.173014819906    
 DIIS: error= 2.80D-02 at cycle   1 NSaved=   1.
 NSaved= 1 IEnMin= 1 EnMin= -214.173014819906     IErMin= 1 ErrMin= 2.80D-02
 ErrMax= 2.80D-02  0.00D+00 EMaxC= 1.00D-01 BMatC= 1.58D-01 BMatP= 1.58D-01
 IDIUse=3 WtCom= 7.20D-01 WtEn= 2.80D-01
 Coeff-Com:  0.100D+01
 Coeff-En:   0.100D+01
 Coeff:      0.100D+01
 Gap=     0.360 Goal=   None    Shift=    0.000
 GapD=    0.360 DampG=1.000 DampE=0.500 DampFc=0.5000 IDamp=-1.
 Damping current iteration by 5.00D-01
 RMSDP=3.24D-03 MaxDP=7.09D-02              OVMax= 1.48D-01

 Cycle   2  Pass 1  IDiag  1:
 RMSU=  1.61D-03    CP:  9.85D-01
 E= -214.213327775525     Delta-E=       -0.040312955619 Rises=F Damp=T
 DIIS: error= 1.36D-02 at cycle   2 NSaved=   2.
 NSaved= 2 IEnMin= 2 EnMin= -214.213327775525     IErMin= 2 ErrMin= 1.36D-02
 ErrMax= 1.36D-02  0.00D+00 EMaxC= 1.00D-01 BMatC= 2.41D-02 BMatP= 1.58D-01
 IDIUse=3 WtCom= 8.64D-01 WtEn= 1.36D-01
 Coeff-Com:  0.230D+00 0.770D+00
 Coeff-En:   0.345D+00 0.655D+00
 Coeff:      0.246D+00 0.754D+00
 Gap=     0.356 Goal=   None    Shift=    0.000
 RMSDP=6.21D-04 MaxDP=2.78D-02 DE=-4.03D-02 OVMax= 1.01D-01

 Cycle   3  Pass 1  IDiag  1:
 RMSU=  5.94D-04    CP:  9.85D-01  8.88D-01
 E= -214.306598096935     Delta-E=       -0.093270321410 Rises=F Damp=F
 DIIS: error= 6.45D-03 at cycle   3 NSaved=   3.
 NSaved= 3 IEnMin= 3 EnMin= -214.306598096935     IErMin= 3 ErrMin= 6.45D-03
 ErrMax= 6.45D-03  0.00D+00 EMaxC= 1.00D-01 BMatC= 6.61D-03 BMatP= 2.41D-02
 IDIUse=3 WtCom= 9.36D-01 WtEn= 6.45D-02
 Coeff-Com:  0.813D-01 0.341D+00 0.578D+00
 Coeff-En:   0.000D+00 0.000D+00 0.100D+01
 Coeff:      0.760D-01 0.319D+00 0.605D+00
 Gap=     0.360 Goal=   None    Shift=    0.000
 RMSDP=4.12D-04 MaxDP=1.10D-02 DE=-9.33D-02 OVMax= 1.94D-02

 Cycle   4  Pass 1  IDiag  1:
 RMSU=  3.10D-04    CP:  9.92D-01  8.69D-01  5.69D-01
 E= -214.309992585930     Delta-E=       -0.003394488995 Rises=F Damp=F
 DIIS: error= 4.34D-03 at cycle   4 NSaved=   4.
 NSaved= 4 IEnMin= 4 EnMin= -214.309992585930     IErMin= 4 ErrMin= 4.34D-03
 ErrMax= 4.34D-03  0.00D+00 EMaxC= 1.00D-01 BMatC= 2.22D-03 BMatP= 6.61D-03
 IDIUse=3 WtCom= 9.57D-01 WtEn= 4.34D-02
 Coeff-Com:  0.244D-01 0.929D-01 0.375D+00 0.507D+00
 Coeff-En:   0.000D+00 0.000D+00 0.299D+00 0.701D+00
 Coeff:      0.233D-01 0.888D-01 0.372D+00 0.516D+00
 Gap=     0.359 Goal=   None    Shift=    0.000
 RMSDP=2.21D-04 MaxDP=5.95D-03 DE=-3.39D-03 OVMax= 8.71D-03

 Cycle   5  Pass 1  IDiag  1:
 RMSU=  8.10D-05    CP:  9.88D-01  8.41D-01  6.34D-01  3.82D-01
 E= -214.312039324330     Delta-E=       -0.002046738400 Rises=F Damp=F
 DIIS: error= 7.01D-04 at cycle   5 NSaved=   5.
 NSaved= 5 IEnMin= 5 EnMin= -214.312039324330     IErMin= 5 ErrMin= 7.01D-04
 ErrMax= 7.01D-04  0.00D+00 EMaxC= 1.00D-01 BMatC= 4.23D-05 BMatP= 2.22D-03
 IDIUse=3 WtCom= 9.93D-01 WtEn= 7.01D-03
 Coeff-Com:  0.249D-02 0.945D-02 0.832D-01 0.198D+00 0.707D+00
 Coeff-En:   0.000D+00 0.000D+00 0.000D+00 0.000D+00 0.100D+01
 Coeff:      0.247D-02 0.939D-02 0.826D-01 0.197D+00 0.709D+00
 Gap=     0.359 Goal=   None    Shift=    0.000
 RMSDP=3.83D-05 MaxDP=8.68D-04 DE=-2.05D-03 OVMax= 1.16D-03

 Cycle   6  Pass 1  IDiag  1:
 RMSU=  9.44D-06    CP:  9.89D-01  8.49D-01  6.43D-01  4.65D-01  7.22D-01
 E= -214.312082453956     Delta-E=       -0.000043129627 Rises=F Damp=F
 DIIS: error= 9.27D-06 at cycle   6 NSaved=   6.
 NSaved= 6 IEnMin= 6 EnMin= -214.312082453956     IErMin= 6 ErrMin= 9.27D-06
 ErrMax= 9.27D-06  0.00D+00 EMaxC= 1.00D-01 BMatC= 1.24D-08 BMatP= 4.23D-05
 IDIUse=1 WtCom= 1.00D+00 WtEn= 0.00D+00
 Coeff-Com:  0.132D-03 0.647D-03 0.512D-02 0.147D-01 0.596D-01 0.920D+00
 Coeff:      0.132D-03 0.647D-03 0.512D-02 0.147D-01 0.596D-01 0.920D+00
 Gap=     0.359 Goal=   None    Shift=    0.000
 RMSDP=7.26D-07 MaxDP=1.84D-05 DE=-4.31D-05 OVMax= 2.15D-05

 Cycle   7  Pass 1  IDiag  1:
 RMSU=  3.24D-07    CP:  9.89D-01  8.49D-01  6.43D-01  4.65D-01  7.29D-01
                    CP:  9.72D-01
 E= -214.312082468089     Delta-E=       -0.000000014133 Rises=F Damp=F
 DIIS: error= 1.22D-06 at cycle   7 NSaved=   7.
 NSaved= 7 IEnMin= 7 EnMin= -214.312082468089     IErMin= 7 ErrMin= 1.22D-06
 ErrMax= 1.22D-06  0.00D+00 EMaxC= 1.00D-01 BMatC= 1.55D-10 BMatP= 1.24D-08
 IDIUse=1 WtCom= 1.00D+00 WtEn= 0.00D+00
 Coeff-Com:  0.786D-05-0.458D-04-0.165D-03-0.313D-03-0.172D-02 0.445D-01
 Coeff-Com:  0.958D+00
 Coeff:      0.786D-05-0.458D-04-0.165D-03-0.313D-03-0.172D-02 0.445D-01
 Coeff:      0.958D+00
 Gap=     0.359 Goal=   None    Shift=    0.000
 RMSDP=8.96D-08 MaxDP=1.67D-06 DE=-1.41D-08 OVMax= 3.02D-06

 Cycle   8  Pass 1  IDiag  1:
 RMSU=  4.95D-08    CP:  9.89D-01  8.49D-01  6.43D-01  4.65D-01  7.28D-01
                    CP:  9.78D-01  9.80D-01
 E= -214.312082468217     Delta-E=       -0.000000000128 Rises=F Damp=F
 DIIS: error= 4.35D-07 at cycle   8 NSaved=   8.
 NSaved= 8 IEnMin= 8 EnMin= -214.312082468217     IErMin= 8 ErrMin= 4.35D-07
 ErrMax= 4.35D-07  0.00D+00 EMaxC= 1.00D-01 BMatC= 3.16D-11 BMatP= 1.55D-10
 IDIUse=1 WtCom= 1.00D+00 WtEn= 0.00D+00
 Coeff-Com:  0.375D-05-0.292D-04-0.114D-03-0.241D-03-0.123D-02 0.215D-01
 Coeff-Com:  0.550D+00 0.430D+00
 Coeff:      0.375D-05-0.292D-04-0.114D-03-0.241D-03-0.123D-02 0.215D-01
 Coeff:      0.550D+00 0.430D+00
 Gap=     0.359 Goal=   None    Shift=    0.000
 RMSDP=2.42D-08 MaxDP=6.27D-07 DE=-1.28D-10 OVMax= 1.03D-06

 Cycle   9  Pass 1  IDiag  1:
 RMSU=  1.45D-08    CP:  9.89D-01  8.49D-01  6.43D-01  4.65D-01  7.28D-01
                    CP:  9.78D-01  9.88D-01  6.14D-01
 E= -214.312082468246     Delta-E=       -0.000000000029 Rises=F Damp=F
 DIIS: error= 4.96D-08 at cycle   9 NSaved=   9.
 NSaved= 9 IEnMin= 9 EnMin= -214.312082468246     IErMin= 9 ErrMin= 4.96D-08
 ErrMax= 4.96D-08  0.00D+00 EMaxC= 1.00D-01 BMatC= 3.41D-13 BMatP= 3.16D-11
 IDIUse=1 WtCom= 1.00D+00 WtEn= 0.00D+00
 Coeff-Com: -0.171D-06-0.311D-05-0.113D-04-0.331D-04-0.142D-03 0.789D-03
 Coeff-Com:  0.446D-01 0.972D-01 0.858D+00
 Coeff:     -0.171D-06-0.311D-05-0.113D-04-0.331D-04-0.142D-03 0.789D-03
 Coeff:      0.446D-01 0.972D-01 0.858D+00
 Gap=     0.359 Goal=   None    Shift=    0.000
 RMSDP=2.99D-09 MaxDP=6.83D-08 DE=-2.88D-11 OVMax= 1.31D-07

 Error on total polarization charges =  0.00759
 SCF Done:  E(RB-P86) =  -214.312082468     A.U. after    9 cycles
            NFock=  9  Conv=0.30D-08     -V/T= 2.0062
 KE= 2.129980998667D+02 PE=-9.107017717564D+02 EE= 2.713595903174D+02
 Leave Link  502 at Tue Feb 23 00:11:16 2021, MaxMem=   104857600 cpu:             167.8 elap:               5.4
 (Enter /sw/arch/RedHatEnterpriseServer7/EB_production/2019/software/Gaussian/g16.c01/l601.exe)
 Copying SCF densities to generalized density rwf, IOpCl= 0 IROHF=0.

 **********************************************************************

            Population analysis using the SCF Density.

 **********************************************************************

 Orbital symmetries:
       Occupied  (A) (A) (A) (A) (A) (A) (A) (A) (A) (A) (A) (A)
                 (A) (A) (A) (A) (A) (A) (A) (A) (A)
       Virtual   (A) (A) (A) (A) (A) (A) (A) (A) (A) (A) (A) (A)
                 (A) (A) (A) (A) (A) (A) (A) (A) (A) (A) (A) (A)
                 (A) (A) (A) (A) (A) (A) (A) (A) (A) (A) (A) (A)
                 (A) (A) (A) (A) (A) (A) (A) (A) (A) (A) (A) (A)
                 (A) (A) (A) (A) (A) (A) (A) (A) (A) (A) (A) (A)
                 (A) (A) (A) (A) (A) (A) (A) (A) (A) (A) (A) (A)
                 (A) (A) (A) (A) (A) (A) (A) (A) (A) (A) (A) (A)
                 (A) (A) (A) (A) (A) (A) (A) (A) (A) (A) (A) (A)
                 (A) (A) (A) (A) (A) (A) (A) (A) (A) (A) (A) (A)
                 (A) (A) (A) (A) (A) (A) (A) (A) (A) (A) (A) (A)
                 (A) (A) (A) (A) (A) (A) (A) (A) (A) (A) (A) (A)
                 (A) (A) (A) (A) (A) (A) (A) (A) (A) (A) (A) (A)
                 (A) (A)
 The electronic state is 1-A.
 Alpha  occ. eigenvalues --  -14.16326  -9.96210  -9.96210  -9.96209  -9.96207
 Alpha  occ. eigenvalues --   -0.95858  -0.69886  -0.69885  -0.69884  -0.59425
 Alpha  occ. eigenvalues --   -0.49605  -0.49604  -0.49604  -0.41190  -0.41190
 Alpha  occ. eigenvalues --   -0.37832  -0.37831  -0.37829  -0.37181  -0.37179
 Alpha  occ. eigenvalues --   -0.37178
 Alpha virt. eigenvalues --   -0.01267   0.01847   0.03859   0.03861   0.03862
 Alpha virt. eigenvalues --    0.05947   0.05949   0.05951   0.09293   0.09297
 Alpha virt. eigenvalues --    0.09299   0.09511   0.09511   0.13341   0.13342
 Alpha virt. eigenvalues --    0.13342   0.17120   0.17126   0.22453   0.22454
 Alpha virt. eigenvalues --    0.22456   0.25903   0.25905   0.25907   0.26855
 Alpha virt. eigenvalues --    0.34168   0.34171   0.34172   0.34214   0.39506
 Alpha virt. eigenvalues --    0.39506   0.39507   0.41040   0.41041   0.41045
 Alpha virt. eigenvalues --    0.42074   0.42074   0.42316   0.42316   0.42317
 Alpha virt. eigenvalues --    0.43142   0.43144   0.43146   0.52770   0.65521
 Alpha virt. eigenvalues --    0.65522   0.65524   0.66562   0.96581   0.96581
 Alpha virt. eigenvalues --    1.13144   1.13145   1.13146   1.16397   1.16399
 Alpha virt. eigenvalues --    1.16400   1.16906   1.16908   1.24540   1.24540
 Alpha virt. eigenvalues --    1.24542   1.26138   1.31175   1.31175   1.31177
 Alpha virt. eigenvalues --    1.36415   1.43983   1.43984   1.43986   1.44290
 Alpha virt. eigenvalues --    1.45842   1.45843   1.45844   1.55809   1.55809
 Alpha virt. eigenvalues --    1.62757   1.62760   1.62761   1.64639   1.64640
 Alpha virt. eigenvalues --    1.64643   1.68698   1.68699   1.68700   1.70148
 Alpha virt. eigenvalues --    1.70150   1.70151   1.72455   1.72455   1.84046
 Alpha virt. eigenvalues --    1.85027   1.85028   1.85029   1.96311   1.96313
 Alpha virt. eigenvalues --    1.96314   2.12622   2.12622   2.12623   2.15689
 Alpha virt. eigenvalues --    2.15689   2.27633   2.27634   2.27635   2.32304
 Alpha virt. eigenvalues --    2.32304   2.32305   2.33719   2.35461   2.35462
 Alpha virt. eigenvalues --    2.35463   2.38511   2.47762   2.47762   2.58819
 Alpha virt. eigenvalues --    2.58821   2.58822   2.59430   2.59431   2.59432
 Alpha virt. eigenvalues --    2.66915   2.66916   2.83005   2.83007   2.83009
 Alpha virt. eigenvalues --    2.85792   3.03247   3.03248   3.03249   3.09215
 Alpha virt. eigenvalues --    3.18092   3.18093   3.18093   3.24214   3.24215
 Alpha virt. eigenvalues --    3.30815   3.30816   3.30817   3.53256   3.53257
 Alpha virt. eigenvalues --    3.53258  21.77125  21.79054  21.79055  21.79056
 Alpha virt. eigenvalues --   31.57030
          Condensed to atoms (all electrons):
               1          2          3          4          5          6
     1  C    5.143439   0.256384  -0.090659  -0.090625  -0.090653   0.387485
     2  N    0.256384   6.373172   0.256231   0.256265   0.256248  -0.014539
     3  C   -0.090659   0.256231   5.143761  -0.090469  -0.090605  -0.006822
     4  C   -0.090625   0.256265  -0.090469   5.143345  -0.090607   0.010062
     5  C   -0.090653   0.256248  -0.090605  -0.090607   5.143621  -0.006860
     6  H    0.387485  -0.014539  -0.006822   0.010062  -0.006860   0.470085
     7  H    0.387434  -0.014500  -0.006859  -0.006868   0.010074  -0.019481
     8  H    0.387451  -0.014521   0.010059  -0.006827  -0.006857  -0.019415
     9  H   -0.006857  -0.014511   0.387445  -0.006845   0.010063  -0.000023
    10  H    0.010056  -0.014543   0.387472  -0.006849  -0.006838  -0.000002
    11  H   -0.006844  -0.014562   0.387513   0.010056  -0.006852   0.002372
    12  H   -0.006858  -0.014492  -0.006842   0.387438   0.010062  -0.000001
    13  H   -0.006854  -0.014545   0.010060   0.387473  -0.006849  -0.000002
    14  H    0.010058  -0.014565  -0.006852   0.387516  -0.006843  -0.000361
    15  H   -0.006860  -0.014523  -0.006821   0.010057   0.387459   0.002374
    16  H    0.010062  -0.014559  -0.006845  -0.006849   0.387498  -0.000002
    17  H   -0.006861  -0.014530   0.010058  -0.006822   0.387437  -0.000019
               7          8          9         10         11         12
     1  C    0.387434   0.387451  -0.006857   0.010056  -0.006844  -0.006858
     2  N   -0.014500  -0.014521  -0.014511  -0.014543  -0.014562  -0.014492
     3  C   -0.006859   0.010059   0.387445   0.387472   0.387513  -0.006842
     4  C   -0.006868  -0.006827  -0.006845  -0.006849   0.010056   0.387438
     5  C    0.010074  -0.006857   0.010063  -0.006838  -0.006852   0.010062
     6  H   -0.019481  -0.019415  -0.000023  -0.000002   0.002372  -0.000001
     7  H    0.470198  -0.019447   0.002378  -0.000001  -0.000022   0.002378
     8  H   -0.019447   0.470045  -0.000002  -0.000361  -0.000002  -0.000022
     9  H    0.002378  -0.000002   0.470053  -0.019406  -0.019451   0.002378
    10  H   -0.000001  -0.000361  -0.019406   0.469890  -0.019456  -0.000022
    11  H   -0.000022  -0.000002  -0.019451  -0.019456   0.470102  -0.000002
    12  H    0.002378  -0.000022   0.002378  -0.000022  -0.000002   0.470100
    13  H   -0.000021   0.002377  -0.000001  -0.000001  -0.000361  -0.019409
    14  H   -0.000001  -0.000002  -0.000022   0.002369  -0.000001  -0.019441
    15  H   -0.000002  -0.000019  -0.000002  -0.000023   0.002376  -0.000361
    16  H   -0.000361  -0.000002  -0.000001   0.002370  -0.000022  -0.000001
    17  H   -0.000002   0.002376  -0.000361  -0.000001  -0.000002  -0.000002
              13         14         15         16         17
     1  C   -0.006854   0.010058  -0.006860   0.010062  -0.006861
     2  N   -0.014545  -0.014565  -0.014523  -0.014559  -0.014530
     3  C    0.010060  -0.006852  -0.006821  -0.006845   0.010058
     4  C    0.387473   0.387516   0.010057  -0.006849  -0.006822
     5  C   -0.006849  -0.006843   0.387459   0.387498   0.387437
     6  H   -0.000002  -0.000361   0.002374  -0.000002  -0.000019
     7  H   -0.000021  -0.000001  -0.000002  -0.000361  -0.000002
     8  H    0.002377  -0.000002  -0.000019  -0.000002   0.002376
     9  H   -0.000001  -0.000022  -0.000002  -0.000001  -0.000361
    10  H   -0.000001   0.002369  -0.000023   0.002370  -0.000001
    11  H   -0.000361  -0.000001   0.002376  -0.000022  -0.000002
    12  H   -0.019409  -0.019441  -0.000361  -0.000001  -0.000002
    13  H    0.470255  -0.019478  -0.000002  -0.000023   0.002381
    14  H   -0.019478   0.469980  -0.000001   0.002371  -0.000024
    15  H   -0.000002  -0.000001   0.470115  -0.019456  -0.019415
    16  H   -0.000023   0.002371  -0.019456   0.469961  -0.019458
    17  H    0.002381  -0.000024  -0.019415  -0.019458   0.470175
 Mulliken charges:
               1
     1  C   -0.279296
     2  N   -0.223911
     3  C   -0.279824
     4  C   -0.279449
     5  C   -0.279496
     6  H    0.195150
     7  H    0.195104
     8  H    0.195166
     9  H    0.195165
    10  H    0.195346
    11  H    0.195160
    12  H    0.195098
    13  H    0.195001
    14  H    0.195298
    15  H    0.195104
    16  H    0.195317
    17  H    0.195070
 Sum of Mulliken charges =   1.00000
 Mulliken charges with hydrogens summed into heavy atoms:
               1
     1  C    0.306123
     2  N   -0.223911
     3  C    0.305847
     4  C    0.305947
     5  C    0.305994
 Electronic spatial extent (au):  <R**2>=            453.3146
 Charge=              1.0000 electrons
 Dipole moment (field-independent basis, Debye):
    X=              0.0017    Y=              0.0016    Z=              0.0004  Tot=              0.0023
 Quadrupole moment (field-independent basis, Debye-Ang):
   XX=            -25.8453   YY=            -25.8473   ZZ=            -25.8431
   XY=              0.0002   XZ=              0.0013   YZ=              0.0026
 Traceless Quadrupole moment (field-independent basis, Debye-Ang):
   XX=             -0.0001   YY=             -0.0021   ZZ=              0.0021
   XY=              0.0002   XZ=              0.0013   YZ=              0.0026
 Octapole moment (field-independent basis, Debye-Ang**2):
  XXX=              0.3894  YYY=              1.1602  ZZZ=              0.5947  XYY=             -0.8684
  XXY=             -0.2357  XXZ=             -1.3438  XZZ=              0.4874  YZZ=             -0.9150
  YYZ=              0.7540  XYZ=             -0.9451
 Hexadecapole moment (field-independent basis, Debye-Ang**3):
 XXXX=           -178.8722 YYYY=           -176.7749 ZZZZ=           -180.7962 XXXY=              4.5646
 XXXZ=             -3.0920 YYYX=             -4.9517 YYYZ=              3.3046 ZZZX=              1.6522
 ZZZY=             -5.5480 XXYY=            -59.8680 XXZZ=            -55.8191 YYZZ=            -57.9301
 XXYZ=              2.2592 YYXZ=              1.4454 ZZXY=              0.3865
 N-N= 2.120319991041D+02 E-N=-9.107017666213D+02  KE= 2.129980998667D+02
 No NMR shielding tensors so no spin-rotation constants.
 Leave Link  601 at Tue Feb 23 00:11:17 2021, MaxMem=   104857600 cpu:               5.8 elap:               0.2
 (Enter /sw/arch/RedHatEnterpriseServer7/EB_production/2019/software/Gaussian/g16.c01/l701.exe)
 ... and contract with generalized density number  0.
 Compute integral first derivatives.
 R6Disp: Adding Grimme-D3 dispersion energy 1st derivatives to the gradient.
 PrsmSu:  requested number of processors reduced to:  30 ShMem   1 Linda.
 D1PCM: PCM CHGder 1st derivatives, ID1Alg=3 FixD1E=F DoIter=F DoCFld=F I1PDM=0.
 GePol: Maximum number of non-zero 1st derivatives   =     172
 CoulSu:  requested number of processors reduced to:  29 ShMem   1 Linda.
 CoulSu:  requested number of processors reduced to:  30 ShMem   1 Linda.
 Leave Link  701 at Tue Feb 23 00:11:17 2021, MaxMem=   104857600 cpu:              20.1 elap:               0.7
 (Enter /sw/arch/RedHatEnterpriseServer7/EB_production/2019/software/Gaussian/g16.c01/l702.exe)
 L702 exits ... SP integral derivatives will be done elsewhere.
 Leave Link  702 at Tue Feb 23 00:11:18 2021, MaxMem=   104857600 cpu:               0.7 elap:               0.1
 (Enter /sw/arch/RedHatEnterpriseServer7/EB_production/2019/software/Gaussian/g16.c01/l703.exe)
 Integral derivatives from FoFJK, PRISM(SPDF).
 Compute integral first derivatives, UseDBF=F ICtDFT=           0.
 Calling FoFJK, ICntrl=      2527 FMM=F ISym2X=0 I1Cent= 0 IOpClX= 0 NMat=1 NMatS=1 NMatT=0.
 FoFJK:  IHMeth= 1 ICntrl=    2527 DoSepK=F KAlg= 0 I1Cent=           0 FoldK=F
 IRaf=         0 NMat=       1 IRICut=       1 DoRegI=T DoRafI=F ISym2E= 0 IDoP0=0 IntGTp=1.
 FoFCou: FMM=F IPFlag=           0 FMFlag=      100000 FMFlg1=         800
         NFxFlg=           0 DoJE=F BraDBF=F KetDBF=F FulRan=T
         wScrn=  0.000000 ICntrl=      2527 IOpCl=  0 I1Cent=           0 NGrid=           0
         NMat0=    1 NMatS0=      1 NMatT0=    0 NMatD0=    1 NMtDS0=    0 NMtDT0=    0
 Symmetry not used in FoFCou.
 Leave Link  703 at Tue Feb 23 00:11:19 2021, MaxMem=   104857600 cpu:              25.6 elap:               0.8
 (Enter /sw/arch/RedHatEnterpriseServer7/EB_production/2019/software/Gaussian/g16.c01/l716.exe)
 Dipole        = 6.66318826D-04 6.14335151D-04 1.41478557D-04
 ***** Axes restored to original set *****
 -------------------------------------------------------------------
 Center     Atomic                   Forces (Hartrees/Bohr)
 Number     Number              X              Y              Z
 -------------------------------------------------------------------
      1        6           0.007789750   -0.003326760   -0.009459403
      2        7          -0.000024496    0.000019901    0.000011848
      3        6          -0.007616716    0.009349079   -0.003831705
      4        6           0.006882177    0.003967440    0.009939451
      5        6          -0.006993711   -0.010021720    0.003478485
      6        1          -0.006847380    0.000624968    0.002381595
      7        1          -0.002243187    0.005201854    0.004509145
      8        1          -0.002103882   -0.001062547    0.006896547
      9        1           0.006697350   -0.002202052    0.001125590
     10        1           0.001966077   -0.004393536    0.005317427
     11        1           0.002221145   -0.006748737   -0.000911584
     12        1          -0.001801726    0.000868485   -0.006995052
     13        1          -0.001625634   -0.005410671   -0.004641933
     14        1          -0.006548587   -0.001249865   -0.002712415
     15        1           0.001930771    0.004600425   -0.005302014
     16        1           0.001633799    0.006923159    0.000990310
     17        1           0.006684248    0.002860578   -0.000796294
 -------------------------------------------------------------------
 Cartesian Forces:  Max     0.010021720 RMS     0.004996409
 Leave Link  716 at Tue Feb 23 00:11:20 2021, MaxMem=   104857600 cpu:               1.0 elap:               0.1
 (Enter /sw/arch/RedHatEnterpriseServer7/EB_production/2019/software/Gaussian/g16.c01/l103.exe)

 GradGradGradGradGradGradGradGradGradGradGradGradGradGradGradGradGradGrad
 Berny optimization.
 FormGI is forming the generalized inverse of G from B-inverse, IUseBI=4.
 Internal  Forces:  Max     0.007386234 RMS     0.004069711
 Search for a local minimum.
 Step number   1 out of a maximum of   92
 All quantities printed in internal units (Hartrees-Bohrs-Radians)
 RMS Force = .40697D-02 SwitMx=.10000D-02 MixMth= 1
 Mixed Optimization -- RFO/linear search
 Second derivative matrix not updated -- first step.
 ITU=  0
     Eigenvalues ---    0.00250   0.00250   0.00250   0.00251   0.04750
     Eigenvalues ---    0.04750   0.04750   0.05371   0.05371   0.05371
     Eigenvalues ---    0.05371   0.05371   0.05372   0.05372   0.05372
     Eigenvalues ---    0.14393   0.14393   0.16000   0.16000   0.16000
     Eigenvalues ---    0.16000   0.16000   0.16000   0.16000   0.16000
     Eigenvalues ---    0.16000   0.16000   0.16000   0.16000   0.31455
     Eigenvalues ---    0.31455   0.31456   0.31456   0.34332   0.34332
     Eigenvalues ---    0.34332   0.34332   0.34332   0.34332   0.34332
     Eigenvalues ---    0.34332   0.34332   0.34332   0.34332   0.34333
 RFO step:  Lambda=-7.66747210D-03 EMin= 2.50404516D-03
 Linear search not attempted -- first point.
 Iteration  1 RMS(Cart)=  0.03879331 RMS(Int)=  0.00095230
 Iteration  2 RMS(Cart)=  0.00099952 RMS(Int)=  0.00046026
 Iteration  3 RMS(Cart)=  0.00000101 RMS(Int)=  0.00046026
 Iteration  4 RMS(Cart)=  0.00000000 RMS(Int)=  0.00046026
 ITry= 1 IFail=0 DXMaxC= 9.68D-02 DCOld= 1.00D+10 DXMaxT= 3.00D-01 DXLimC= 3.00D+00 Rises=F
 Variable       Old X    -DE/DX   Delta X   Delta X   Delta X     New X
                                 (Linear)    (Quad)   (Total)
    R1        2.85152  -0.00569   0.00000  -0.01766  -0.01766   2.83386
    R2        2.06772   0.00144   0.00000   0.00410   0.00410   2.07181
    R3        2.06773   0.00139   0.00000   0.00396   0.00396   2.07169
    R4        2.06773   0.00137   0.00000   0.00391   0.00391   2.07164
    R5        2.85153  -0.00543   0.00000  -0.01686  -0.01686   2.83466
    R6        2.85152  -0.00569   0.00000  -0.01765  -0.01765   2.83386
    R7        2.85151  -0.00568   0.00000  -0.01762  -0.01762   2.83389
    R8        2.06773   0.00142   0.00000   0.00404   0.00404   2.07177
    R9        2.06774   0.00139   0.00000   0.00396   0.00396   2.07170
   R10        2.06773   0.00137   0.00000   0.00390   0.00390   2.07163
   R11        2.06773   0.00136   0.00000   0.00388   0.00388   2.07160
   R12        2.06774   0.00137   0.00000   0.00390   0.00390   2.07164
   R13        2.06773   0.00139   0.00000   0.00397   0.00397   2.07170
   R14        2.06773   0.00140   0.00000   0.00400   0.00400   2.07173
   R15        2.06773   0.00133   0.00000   0.00378   0.00378   2.07151
   R16        2.06774   0.00142   0.00000   0.00406   0.00406   2.07180
    A1        1.94436  -0.00689   0.00000  -0.04102  -0.04187   1.90249
    A2        1.94435  -0.00681   0.00000  -0.04048  -0.04132   1.90304
    A3        1.94435  -0.00696   0.00000  -0.04169  -0.04256   1.90179
    A4        1.87574   0.00737   0.00000   0.04432   0.04349   1.91922
    A5        1.87575   0.00737   0.00000   0.04370   0.04280   1.91855
    A6        1.87573   0.00734   0.00000   0.04363   0.04275   1.91848
    A7        1.91063   0.00009   0.00000   0.00093   0.00093   1.91156
    A8        1.91063  -0.00004   0.00000  -0.00081  -0.00081   1.90982
    A9        1.91064  -0.00012   0.00000  -0.00141  -0.00141   1.90923
   A10        1.91063  -0.00002   0.00000   0.00049   0.00049   1.91112
   A11        1.91063   0.00005   0.00000   0.00083   0.00083   1.91146
   A12        1.91064   0.00004   0.00000  -0.00003  -0.00003   1.91061
   A13        1.94436  -0.00675   0.00000  -0.04020  -0.04101   1.90334
   A14        1.94435  -0.00680   0.00000  -0.04060  -0.04143   1.90293
   A15        1.94436  -0.00679   0.00000  -0.04049  -0.04131   1.90304
   A16        1.87574   0.00723   0.00000   0.04311   0.04227   1.91802
   A17        1.87573   0.00725   0.00000   0.04332   0.04250   1.91823
   A18        1.87574   0.00725   0.00000   0.04317   0.04232   1.91806
   A19        1.94437  -0.00692   0.00000  -0.04132  -0.04218   1.90219
   A20        1.94435  -0.00698   0.00000  -0.04180  -0.04267   1.90168
   A21        1.94435  -0.00674   0.00000  -0.04004  -0.04087   1.90349
   A22        1.87574   0.00739   0.00000   0.04370   0.04280   1.91854
   A23        1.87574   0.00734   0.00000   0.04405   0.04322   1.91895
   A24        1.87573   0.00734   0.00000   0.04386   0.04300   1.91873
   A25        1.94435  -0.00690   0.00000  -0.04119  -0.04204   1.90231
   A26        1.94436  -0.00678   0.00000  -0.04026  -0.04109   1.90327
   A27        1.94435  -0.00696   0.00000  -0.04163  -0.04249   1.90186
   A28        1.87574   0.00734   0.00000   0.04399   0.04315   1.91890
   A29        1.87573   0.00737   0.00000   0.04366   0.04277   1.91850
   A30        1.87574   0.00734   0.00000   0.04386   0.04300   1.91875
    D1       -1.04719  -0.00004   0.00000  -0.00055  -0.00053  -1.04772
    D2       -3.14158  -0.00005   0.00000  -0.00122  -0.00120   3.14041
    D3        1.04720  -0.00000   0.00000   0.00017   0.00019   1.04739
    D4        1.04720   0.00002   0.00000   0.00044   0.00043   1.04763
    D5       -1.04719   0.00001   0.00000  -0.00023  -0.00024  -1.04743
    D6        3.14159   0.00006   0.00000   0.00116   0.00115  -3.14045
    D7        3.14159  -0.00000   0.00000   0.00009   0.00008  -3.14152
    D8        1.04720  -0.00001   0.00000  -0.00058  -0.00059   1.04661
    D9       -1.04721   0.00004   0.00000   0.00081   0.00080  -1.04641
   D10       -1.04720  -0.00002   0.00000   0.00065   0.00065  -1.04655
   D11        3.14159  -0.00001   0.00000   0.00072   0.00072  -3.14087
   D12        1.04719   0.00000   0.00000   0.00092   0.00092   1.04811
   D13        1.04719  -0.00002   0.00000   0.00053   0.00053   1.04772
   D14       -1.04720  -0.00002   0.00000   0.00060   0.00060  -1.04661
   D15        3.14159  -0.00001   0.00000   0.00080   0.00079  -3.14081
   D16        3.14159   0.00005   0.00000   0.00130   0.00130  -3.14030
   D17        1.04719   0.00005   0.00000   0.00137   0.00137   1.04856
   D18       -1.04720   0.00006   0.00000   0.00157   0.00156  -1.04564
   D19        1.04719   0.00003   0.00000  -0.00049  -0.00047   1.04672
   D20       -1.04721   0.00009   0.00000   0.00041   0.00040  -1.04681
   D21       -3.14159   0.00008   0.00000   0.00024   0.00024  -3.14135
   D22       -1.04720  -0.00005   0.00000  -0.00143  -0.00141  -1.04861
   D23        3.14159   0.00001   0.00000  -0.00053  -0.00054   3.14105
   D24        1.04721  -0.00000   0.00000  -0.00070  -0.00070   1.04650
   D25       -3.14159  -0.00012   0.00000  -0.00273  -0.00271   3.13889
   D26        1.04720  -0.00006   0.00000  -0.00182  -0.00183   1.04536
   D27       -1.04718  -0.00007   0.00000  -0.00199  -0.00200  -1.04918
   D28       -1.04718  -0.00002   0.00000   0.00078   0.00076  -1.04642
   D29       -3.14159  -0.00005   0.00000   0.00018   0.00018  -3.14141
   D30        1.04719  -0.00006   0.00000   0.00003   0.00005   1.04724
   D31        1.04721   0.00005   0.00000   0.00156   0.00155   1.04875
   D32       -1.04720   0.00002   0.00000   0.00096   0.00096  -1.04624
   D33        3.14158   0.00001   0.00000   0.00082   0.00083  -3.14078
   D34       -3.14159   0.00009   0.00000   0.00265   0.00263  -3.13896
   D35        1.04719   0.00005   0.00000   0.00204   0.00205   1.04924
   D36       -1.04721   0.00004   0.00000   0.00190   0.00191  -1.04530
         Item               Value     Threshold  Converged?
 Maximum Force            0.007386     0.000450     NO 
 RMS     Force            0.004070     0.000300     NO 
 Maximum Displacement     0.096814     0.001800     NO 
 RMS     Displacement     0.039532     0.001200     NO 
 Predicted change in Energy=-4.002449D-03
 Lowest energy point so far.  Saving SCF results.
 GradGradGradGradGradGradGradGradGradGradGradGradGradGradGradGradGradGrad

 Leave Link  103 at Tue Feb 23 00:11:20 2021, MaxMem=   104857600 cpu:              16.7 elap:               0.6
 (Enter /sw/arch/RedHatEnterpriseServer7/EB_production/2019/software/Gaussian/g16.c01/l202.exe)
                          Input orientation:                          
 ---------------------------------------------------------------------
 Center     Atomic      Atomic             Coordinates (Angstroms)
 Number     Number       Type             X           Y           Z
 ---------------------------------------------------------------------
      1          6           0        1.753207   -0.764097   -0.257395
      2          7           0        0.838808   -0.370903    0.864263
      3          6           0       -0.064366    0.737180    0.409789
      4          6           0        1.654814    0.095806    2.032667
      5          6           0        0.013415   -1.554688    1.272026
      6          1           0        1.149945   -1.105092   -1.106978
      7          1           0        2.354351    0.104747   -0.549957
      8          1           0        2.408544   -1.573750    0.084352
      9          1           0        0.546504    1.597628    0.112441
     10          1           0       -0.728317    1.018581    1.235533
     11          1           0       -0.657500    0.387841   -0.443405
     12          1           0        2.256708    0.958949    1.725317
     13          1           0        2.310679   -0.720273    2.357710
     14          1           0        0.980860    0.381363    2.848822
     15          1           0       -0.577522   -1.890923    0.412003
     16          1           0       -0.652710   -1.261155    2.091640
     17          1           0        0.681851   -2.358173    1.603064
 ---------------------------------------------------------------------
                    Distance matrix (angstroms):
                    1          2          3          4          5
     1  C    0.000000
     2  N    1.499615   0.000000
     3  C    2.450008   1.500039   0.000000
     4  C    2.448162   1.499617   2.449627   0.000000
     5  C    2.447659   1.499630   2.449931   2.448855   0.000000
     6  H    1.096355   2.126413   2.677518   3.399179   2.674602
     7  H    1.096292   2.126766   2.677924   2.675701   3.399018
     8  H    1.096265   2.125836   3.400235   2.674221   2.673495
     9  H    2.677808   2.127391   1.096334   2.677888   3.400870
    10  H    3.400697   2.127061   1.096299   2.676985   2.678286
    11  H    2.678259   2.127117   1.096260   3.400443   2.676985
    12  H    2.674611   2.126114   2.677159   1.096246   3.399441
    13  H    2.674223   2.125759   3.399913   1.096266   2.674393
    14  H    3.399586   2.127100   2.677309   1.096296   2.677784
    15  H    2.673973   2.126262   2.677735   3.399554   1.096313
    16  H    3.399039   2.126882   2.677334   2.677590   1.096198
    17  H    2.673984   2.125960   3.400289   2.674553   1.096349
                    6          7          8          9         10
     6  H    0.000000
     7  H    1.795710   0.000000
     8  H    1.795266   1.795170   0.000000
     9  H    3.025859   2.436345   3.677720   0.000000
    10  H    3.677665   3.677759   4.229102   1.794937   0.000000
    11  H    2.436399   3.027002   3.677907   1.795041   1.794904
    12  H    3.675198   2.432297   3.021652   2.435996   3.025528
    13  H    3.674160   3.022762   2.430259   3.677800   3.676738
    14  H    4.229243   3.676234   3.674649   3.025847   2.435166
    15  H    2.430839   3.674771   3.020687   3.677385   3.027566
    16  H    3.674926   4.229201   3.673989   3.678041   2.436357
    17  H    3.022194   3.674062   2.429666   4.229497   3.677788
                   11         12         13         14         15
    11  H    0.000000
    12  H    3.677244   0.000000
    13  H    4.228978   1.795166   0.000000
    14  H    3.677366   1.795455   1.795331   0.000000
    15  H    2.435341   4.228407   3.673950   3.678305   0.000000
    16  H    3.024180   3.678011   3.024074   2.437159   1.795394
    17  H    3.677295   3.674019   2.430080   3.024298   1.795264
                   16         17
    16  H    0.000000
    17  H    1.795329   0.000000
 Stoichiometry    C4H12N(1+)
 Framework group  C1[X(C4H12N)]
 Deg. of freedom    45
 Full point group                 C1      NOp   1
 RotChk:  IX=0 Diff= 2.10D+00
 Largest Abelian subgroup         C1      NOp   1
 Largest concise Abelian subgroup C1      NOp   1
                         Standard orientation:                         
 ---------------------------------------------------------------------
 Center     Atomic      Atomic             Coordinates (Angstroms)
 Number     Number       Type             X           Y           Z
 ---------------------------------------------------------------------
      1          6           0       -0.673240   -0.137701    1.332441
      2          7           0        0.000670   -0.000013   -0.000124
      3          6           0        1.471645   -0.250359    0.153750
      4          6           0       -0.218561    1.386004   -0.529033
      5          6           0       -0.579981   -0.997890   -0.957191
      6          1           0       -0.509751   -1.153191    1.711975
      7          1           0       -0.245427    0.594821    2.026879
      8          1           0       -1.746842    0.046850    1.209495
      9          1           0        1.887846    0.481971    0.855475
     10          1           0        1.956064   -0.146996   -0.824271
     11          1           0        1.623187   -1.265157    0.539763
     12          1           0        0.206131    2.108686    0.177453
     13          1           0       -1.295503    1.559229   -0.638520
     14          1           0        0.276062    1.480000   -1.502880
     15          1           0       -0.417899   -2.007542   -0.561926
     16          1           0       -0.083526   -0.892552   -1.928832
     17          1           0       -1.654216   -0.806350   -1.063553
 ---------------------------------------------------------------------
 Rotational constants (GHZ):           4.6638471           4.6602946           4.6579046
 Leave Link  202 at Tue Feb 23 00:11:20 2021, MaxMem=   104857600 cpu:               0.8 elap:               0.1
 (Enter /sw/arch/RedHatEnterpriseServer7/EB_production/2019/software/Gaussian/g16.c01/l301.exe)
 Standard basis: TZVP (5D, 7F)
 Ernie: Thresh=  0.10000D-02 Tol=  0.10000D-05 Strict=F.
 There are   172 symmetry adapted cartesian basis functions of A   symmetry.
 There are   167 symmetry adapted basis functions of A   symmetry.
   167 basis functions,   271 primitive gaussians,   172 cartesian basis functions
    21 alpha electrons       21 beta electrons
       nuclear repulsion energy       213.7390727230 Hartrees.
 IExCor=  404 DFT=T Ex=B Corr=P86 ExCW=0 ScaHFX=  0.000000
 ScaDFX=  1.000000  1.000000  1.000000  1.000000 ScalE2=  1.000000  1.000000
 IRadAn=      5 IRanWt=     -1 IRanGd=            0 ICorTp=0 IEmpDi=131
 NAtoms=   17 NActive=   17 NUniq=   17 SFac= 1.00D+00 NAtFMM=   60 NAOKFM=F Big=F
 Integral buffers will be    131072 words long.
 Raffenetti 2 integral format.
 Two-electron integral symmetry is turned on.
 R6Disp:  Grimme-D3 Dispersion energy=       -0.0145834716 Hartrees.
 Nuclear repulsion after empirical dispersion term =      213.7244892513 Hartrees.
 ------------------------------------------------------------------------------
 Polarizable Continuum Model (PCM)
 =================================
 Model                : PCM.
 Atomic radii         : UFF (Universal Force Field).
 Polarization charges : Total charges.
 Charge compensation  : None.
 Solution method      : On-the-fly selection.
 Cavity type          : Scaled VdW (van der Waals Surface) (Alpha=1.100).
 Cavity algorithm     : GePol (No added spheres)
                        Default sphere list used, NSphG=   17.
                        Lebedev-Laikov grids with approx.  5.0 points / Ang**2.
                        Smoothing algorithm: York/Karplus (Gamma=1.0000).
                        Polarization charges: spherical gaussians, with
                                              point-specific exponents (IZeta= 3).
                        Self-potential: point-specific (ISelfS= 7).
                        Self-field    : sphere-specific E.n sum rule (ISelfD= 2).
 1st derivatives      : Analytical E(r).r(x)/FMM algorithm (CHGder, D1EAlg=3).
                        Cavity 1st derivative terms included.
 Solvent              : Water, Eps=  78.355300 Eps(inf)=   1.777849
 ------------------------------------------------------------------------------
 Spheres list:
 ISph  on   Nord     Re0    Alpha      Xe            Ye            Ze
    1   C      1    1.9255  1.100     -0.673240     -0.137701      1.332441
    2   N      2    1.8300  1.100      0.000670     -0.000013     -0.000124
    3   C      3    1.9255  1.100      1.471645     -0.250359      0.153750
    4   C      4    1.9255  1.100     -0.218561      1.386004     -0.529033
    5   C      5    1.9255  1.100     -0.579981     -0.997890     -0.957191
    6   H      6    1.4430  1.100     -0.509751     -1.153191      1.711975
    7   H      7    1.4430  1.100     -0.245427      0.594821      2.026879
    8   H      8    1.4430  1.100     -1.746842      0.046850      1.209495
    9   H      9    1.4430  1.100      1.887846      0.481971      0.855475
   10   H     10    1.4430  1.100      1.956064     -0.146996     -0.824271
   11   H     11    1.4430  1.100      1.623187     -1.265157      0.539763
   12   H     12    1.4430  1.100      0.206131      2.108686      0.177453
   13   H     13    1.4430  1.100     -1.295503      1.559229     -0.638520
   14   H     14    1.4430  1.100      0.276062      1.480000     -1.502880
   15   H     15    1.4430  1.100     -0.417899     -2.007542     -0.561926
   16   H     16    1.4430  1.100     -0.083526     -0.892552     -1.928832
   17   H     17    1.4430  1.100     -1.654216     -0.806350     -1.063553
 ------------------------------------------------------------------------------
 GePol: Number of generator spheres                  =      17
 GePol: Total number of spheres                      =      17
 GePol: Number of exposed spheres                    =      16 ( 94.12%)
 GePol: Number of points                             =    1131
 GePol: Average weight of points                     =       0.14
 GePol: Minimum weight of points                     =   0.72D-09
 GePol: Maximum weight of points                     =    0.20577
 GePol: Number of points with low weight             =      75
 GePol: Fraction of low-weight points (<1% of avg)   =       6.63%
 GePol: Cavity surface area                          =    156.817 Ang**2
 GePol: Cavity volume                                =    150.597 Ang**3
 Leave Link  301 at Tue Feb 23 00:11:21 2021, MaxMem=   104857600 cpu:               1.8 elap:               0.1
 (Enter /sw/arch/RedHatEnterpriseServer7/EB_production/2019/software/Gaussian/g16.c01/l302.exe)
 NPDir=0 NMtPBC=     1 NCelOv=     1 NCel=       1 NClECP=     1 NCelD=      1
         NCelK=      1 NCelE2=     1 NClLst=     1 CellRange=     0.0.
 One-electron integrals computed using PRISM.
 One-electron integral symmetry used in STVInt
 PrsmSu:  requested number of processors reduced to:  29 ShMem   1 Linda.
 NBasis=   167 RedAO= T EigKep=  8.12D-04  NBF=   167
 NBsUse=   167 1.00D-06 EigRej= -1.00D+00 NBFU=   167
 Precomputing XC quadrature grid using
 IXCGrd= 4 IRadAn=           5 IRanWt=          -1 IRanGd=           0 AccXCQ= 0.00D+00.
 Generated NRdTot=       0 NPtTot=           0 NUsed=           0 NTot=          32
 NSgBfM=   172   172   172   172   172 MxSgAt=    17 MxSgA2=    17.
 Leave Link  302 at Tue Feb 23 00:11:21 2021, MaxMem=   104857600 cpu:               8.9 elap:               0.3
 (Enter /sw/arch/RedHatEnterpriseServer7/EB_production/2019/software/Gaussian/g16.c01/l303.exe)
 DipDrv:  MaxL=1.
 Leave Link  303 at Tue Feb 23 00:11:21 2021, MaxMem=   104857600 cpu:               0.9 elap:               0.1
 (Enter /sw/arch/RedHatEnterpriseServer7/EB_production/2019/software/Gaussian/g16.c01/l401.exe)
 Initial guess from the checkpoint file:  "QEMXHQIAXOOASZ-UHFFFAOYSA-N.chk"
 B after Tr=    -0.000000    0.000000    0.000000
         Rot=    0.671453    0.389652   -0.622430    0.099519 Ang=  95.64 deg.
 Guess basis will be translated and rotated to current coordinates.
 JPrj=2 DoOrth=T DoCkMO=T.
 Generating alternative initial guess.
 ExpMin= 9.52D-02 ExpMax= 1.97D+04 ExpMxC= 6.73D+02 IAcc=3 IRadAn=         5 AccDes= 0.00D+00
 Harris functional with IExCor=  404 and IRadAn=       5 diagonalized for initial guess.
 HarFok:  IExCor=  404 AccDes= 0.00D+00 IRadAn=         5 IDoV= 1 UseB2=F ITyADJ=14
 ICtDFT=  3500011 ScaDFX=  1.000000  1.000000  1.000000  1.000000
 FoFCou: FMM=F IPFlag=           0 FMFlag=      100000 FMFlg1=           0
         NFxFlg=           0 DoJE=T BraDBF=F KetDBF=T FulRan=T
         wScrn=  0.000000 ICntrl=       500 IOpCl=  0 I1Cent=   200000004 NGrid=           0
         NMat0=    1 NMatS0=      1 NMatT0=    0 NMatD0=    1 NMtDS0=    0 NMtDT0=    0
 Petite list used in FoFCou.
 Harris En= -214.390803145423    
 Leave Link  401 at Tue Feb 23 00:11:21 2021, MaxMem=   104857600 cpu:              11.0 elap:               0.4
 (Enter /sw/arch/RedHatEnterpriseServer7/EB_production/2019/software/Gaussian/g16.c01/l502.exe)
 Integral symmetry usage will be decided dynamically.
 Closed shell SCF:
 Using DIIS extrapolation, IDIIS=  1040.
 NGot=   104857600 LenX=   104790552 LenY=   104760527
 Requested convergence on RMS density matrix=1.00D-08 within 128 cycles.
 Requested convergence on MAX density matrix=1.00D-06.
 Requested convergence on             energy=1.00D-06.
 No special actions if energy rises.
 Fock matrices will be formed incrementally for  20 cycles.

 Cycle   1  Pass 1  IDiag  1:
 FoFJK:  IHMeth= 1 ICntrl=     500 DoSepK=F KAlg= 0 I1Cent=           0 FoldK=F
 IRaf= 990000000 NMat=       1 IRICut=       1 DoRegI=T DoRafI=F ISym2E= 0 IDoP0=0 IntGTp=1.
 FoFCou: FMM=F IPFlag=           0 FMFlag=      100000 FMFlg1=           0
         NFxFlg=           0 DoJE=T BraDBF=F KetDBF=F FulRan=T
         wScrn=  0.000000 ICntrl=       500 IOpCl=  0 I1Cent=           0 NGrid=           0
         NMat0=    1 NMatS0=      1 NMatT0=    0 NMatD0=    1 NMtDS0=    0 NMtDT0=    0
 Symmetry not used in FoFCou.
 Inv3:  Mode=1 IEnd=     3837483.
 Iteration    1 A*A^-1 deviation from unit magnitude is 3.44D-15 for    250.
 Iteration    1 A*A^-1 deviation from orthogonality  is 2.00D-15 for   1024    742.
 Iteration    1 A^-1*A deviation from unit magnitude is 3.00D-15 for    250.
 Iteration    1 A^-1*A deviation from orthogonality  is 2.00D-15 for    995    743.
 E= -214.315184838886    
 DIIS: error= 1.91D-03 at cycle   1 NSaved=   1.
 NSaved= 1 IEnMin= 1 EnMin= -214.315184838886     IErMin= 1 ErrMin= 1.91D-03
 ErrMax= 1.91D-03  0.00D+00 EMaxC= 1.00D-01 BMatC= 8.05D-04 BMatP= 8.05D-04
 IDIUse=3 WtCom= 9.81D-01 WtEn= 1.91D-02
 Coeff-Com:  0.100D+01
 Coeff-En:   0.100D+01
 Coeff:      0.100D+01
 Gap=     0.629 Goal=   None    Shift=    0.000
 GapD=    0.629 DampG=2.000 DampE=1.000 DampFc=2.0000 IDamp=-1.
 RMSDP=3.48D-04 MaxDP=6.37D-03              OVMax= 7.63D-03

 Cycle   2  Pass 1  IDiag  1:
 RMSU=  3.45D-04    CP:  1.00D+00
 E= -214.315821315582     Delta-E=       -0.000636476695 Rises=F Damp=F
 DIIS: error= 1.25D-03 at cycle   2 NSaved=   2.
 NSaved= 2 IEnMin= 2 EnMin= -214.315821315582     IErMin= 2 ErrMin= 1.25D-03
 ErrMax= 1.25D-03  0.00D+00 EMaxC= 1.00D-01 BMatC= 1.44D-04 BMatP= 8.05D-04
 IDIUse=3 WtCom= 9.87D-01 WtEn= 1.25D-02
 Coeff-Com:  0.222D+00 0.778D+00
 Coeff-En:   0.000D+00 0.100D+01
 Coeff:      0.219D+00 0.781D+00
 Gap=     0.358 Goal=   None    Shift=    0.000
 RMSDP=1.19D-04 MaxDP=3.33D-03 DE=-6.36D-04 OVMax= 4.70D-03

 Cycle   3  Pass 1  IDiag  1:
 RMSU=  8.79D-05    CP:  1.00D+00  7.77D-01
 E= -214.315777957668     Delta-E=        0.000043357914 Rises=F Damp=F
 DIIS: error= 1.40D-03 at cycle   3 NSaved=   3.
 NSaved= 3 IEnMin= 2 EnMin= -214.315821315582     IErMin= 2 ErrMin= 1.25D-03
 ErrMax= 1.40D-03  0.00D+00 EMaxC= 1.00D-01 BMatC= 2.14D-04 BMatP= 1.44D-04
 IDIUse=3 WtCom= 2.11D-01 WtEn= 7.89D-01
 Coeff-Com:  0.472D-01 0.540D+00 0.412D+00
 Coeff-En:   0.000D+00 0.556D+00 0.444D+00
 Coeff:      0.995D-02 0.553D+00 0.437D+00
 Gap=     0.358 Goal=   None    Shift=    0.000
 RMSDP=5.43D-05 MaxDP=1.50D-03 DE= 4.34D-05 OVMax= 2.59D-03

 Cycle   4  Pass 1  IDiag  1:
 RMSU=  1.89D-05    CP:  1.00D+00  8.45D-01  5.01D-01
 E= -214.315955275249     Delta-E=       -0.000177317581 Rises=F Damp=F
 DIIS: error= 2.17D-04 at cycle   4 NSaved=   4.
 NSaved= 4 IEnMin= 4 EnMin= -214.315955275249     IErMin= 4 ErrMin= 2.17D-04
 ErrMax= 2.17D-04  0.00D+00 EMaxC= 1.00D-01 BMatC= 5.65D-06 BMatP= 1.44D-04
 IDIUse=3 WtCom= 9.98D-01 WtEn= 2.17D-03
 Coeff-Com:  0.191D-02 0.213D+00 0.203D+00 0.583D+00
 Coeff-En:   0.000D+00 0.000D+00 0.000D+00 0.100D+01
 Coeff:      0.191D-02 0.212D+00 0.202D+00 0.583D+00
 Gap=     0.358 Goal=   None    Shift=    0.000
 RMSDP=1.09D-05 MaxDP=2.85D-04 DE=-1.77D-04 OVMax= 4.36D-04

 Cycle   5  Pass 1  IDiag  1:
 RMSU=  3.87D-06    CP:  1.00D+00  8.64D-01  4.83D-01  5.96D-01
 E= -214.315959081656     Delta-E=       -0.000003806406 Rises=F Damp=F
 DIIS: error= 6.58D-05 at cycle   5 NSaved=   5.
 NSaved= 5 IEnMin= 5 EnMin= -214.315959081656     IErMin= 5 ErrMin= 6.58D-05
 ErrMax= 6.58D-05  0.00D+00 EMaxC= 1.00D-01 BMatC= 4.13D-07 BMatP= 5.65D-06
 IDIUse=1 WtCom= 1.00D+00 WtEn= 0.00D+00
 Coeff-Com: -0.109D-03 0.108D+00 0.107D+00 0.343D+00 0.443D+00
 Coeff:     -0.109D-03 0.108D+00 0.107D+00 0.343D+00 0.443D+00
 Gap=     0.358 Goal=   None    Shift=    0.000
 RMSDP=2.27D-06 MaxDP=4.74D-05 DE=-3.81D-06 OVMax= 1.18D-04

 Cycle   6  Pass 1  IDiag  1:
 RMSU=  8.39D-07    CP:  1.00D+00  8.65D-01  4.90D-01  6.08D-01  4.98D-01
 E= -214.315959529541     Delta-E=       -0.000000447885 Rises=F Damp=F
 DIIS: error= 2.67D-06 at cycle   6 NSaved=   6.
 NSaved= 6 IEnMin= 6 EnMin= -214.315959529541     IErMin= 6 ErrMin= 2.67D-06
 ErrMax= 2.67D-06  0.00D+00 EMaxC= 1.00D-01 BMatC= 6.86D-10 BMatP= 4.13D-07
 IDIUse=1 WtCom= 1.00D+00 WtEn= 0.00D+00
 Coeff-Com: -0.392D-04 0.849D-02 0.998D-02 0.295D-01 0.541D-01 0.898D+00
 Coeff:     -0.392D-04 0.849D-02 0.998D-02 0.295D-01 0.541D-01 0.898D+00
 Gap=     0.358 Goal=   None    Shift=    0.000
 RMSDP=1.28D-07 MaxDP=4.80D-06 DE=-4.48D-07 OVMax= 4.96D-06

 Cycle   7  Pass 1  IDiag  1:
 RMSU=  5.06D-08    CP:  1.00D+00  8.65D-01  4.91D-01  6.08D-01  5.05D-01
                    CP:  9.74D-01
 E= -214.315959530141     Delta-E=       -0.000000000600 Rises=F Damp=F
 DIIS: error= 9.99D-08 at cycle   7 NSaved=   7.
 NSaved= 7 IEnMin= 7 EnMin= -214.315959530141     IErMin= 7 ErrMin= 9.99D-08
 ErrMax= 9.99D-08  0.00D+00 EMaxC= 1.00D-01 BMatC= 2.65D-12 BMatP= 6.86D-10
 IDIUse=1 WtCom= 1.00D+00 WtEn= 0.00D+00
 Coeff-Com: -0.734D-05 0.107D-02 0.134D-02 0.406D-02 0.871D-02 0.163D+00
 Coeff-Com:  0.822D+00
 Coeff:     -0.734D-05 0.107D-02 0.134D-02 0.406D-02 0.871D-02 0.163D+00
 Coeff:      0.822D+00
 Gap=     0.358 Goal=   None    Shift=    0.000
 RMSDP=1.35D-08 MaxDP=2.44D-07 DE=-6.00D-10 OVMax= 5.01D-07

 Cycle   8  Pass 1  IDiag  1:
 RMSU=  1.19D-08    CP:  1.00D+00  8.65D-01  4.91D-01  6.08D-01  5.06D-01
                    CP:  9.77D-01  9.03D-01
 E= -214.315959530143     Delta-E=       -0.000000000002 Rises=F Damp=F
 DIIS: error= 5.65D-08 at cycle   8 NSaved=   8.
 NSaved= 8 IEnMin= 8 EnMin= -214.315959530143     IErMin= 8 ErrMin= 5.65D-08
 ErrMax= 5.65D-08  0.00D+00 EMaxC= 1.00D-01 BMatC= 6.43D-13 BMatP= 2.65D-12
 IDIUse=1 WtCom= 1.00D+00 WtEn= 0.00D+00
 Coeff-Com: -0.117D-05 0.160D-05 0.311D-04 0.169D-03 0.925D-03 0.229D-01
 Coeff-Com:  0.363D+00 0.613D+00
 Coeff:     -0.117D-05 0.160D-05 0.311D-04 0.169D-03 0.925D-03 0.229D-01
 Coeff:      0.363D+00 0.613D+00
 Gap=     0.358 Goal=   None    Shift=    0.000
 RMSDP=4.18D-09 MaxDP=1.11D-07 DE=-1.93D-12 OVMax= 2.03D-07

 Error on total polarization charges =  0.00758
 SCF Done:  E(RB-P86) =  -214.315959530     A.U. after    8 cycles
            NFock=  8  Conv=0.42D-08     -V/T= 2.0058
 KE= 2.130739645507D+02 PE=-9.140968153694D+02 EE= 2.729824020373D+02
 Leave Link  502 at Tue Feb 23 00:11:26 2021, MaxMem=   104857600 cpu:             149.1 elap:               4.8
 (Enter /sw/arch/RedHatEnterpriseServer7/EB_production/2019/software/Gaussian/g16.c01/l701.exe)
 ... and contract with generalized density number  0.
[...]
      1          6           0       -0.036918    0.258727    1.487111
      2          7           0       -0.000032    0.000117   -0.000352
      3          6           0        0.072688   -1.487723   -0.250557
      4          6           0        1.214186    0.671201   -0.597573
      5          6           0       -1.249948    0.557844   -0.638887
      6          1           0       -0.920244   -0.234771    1.906773
      7          1           0        0.874804   -0.149506    1.936194
      8          1           0       -0.090714    1.339973    1.654273
      9          1           0        0.982702   -1.878020    0.217863
     10          1           0        0.098753   -1.660638   -1.331862
     11          1           0       -0.812659   -1.960920    0.187918
     12          1           0        2.111392    0.255779   -0.125896
     13          1           0        1.149275    1.747786   -0.406398
     14          1           0        1.228055    0.477486   -1.675698
     15          1           0       -2.120527    0.064402   -0.193770
     16          1           0       -1.211943    0.360982   -1.715651
     17          1           0       -1.288717    1.636337   -0.451845
 ---------------------------------------------------------------------
 Rotational constants (GHZ):           4.6120731           4.6111483           4.6094596
 Standard basis: TZVP (5D, 7F)
 There are   172 symmetry adapted cartesian basis functions of A   symmetry.
 There are   167 symmetry adapted basis functions of A   symmetry.
   167 basis functions,   271 primitive gaussians,   172 cartesian basis functions
    21 alpha electrons       21 beta electrons
       nuclear repulsion energy       212.8034022849 Hartrees.
 NAtoms=   17 NActive=   17 NUniq=   17 SFac= 1.00D+00 NAtFMM=   60 NAOKFM=F Big=F
 Integral buffers will be    131072 words long.
 Raffenetti 2 integral format.
 Two-electron integral symmetry is turned on.
 Warning! Using old PCM defaults because the COSMOthermo output has been requested.
 These settings can be overridden by following keywords.
 ------------------------------------------------------------------------------
 Polarizable Continuum Model (PCM)
 =================================
 Model                : C-PCM.
 Atomic radii         : Klamt.
 XCosmo               : -1.000 (infinite dielectric limit)
 Polarization charges : Electronic and nuclear charges.
 Charge compensation  : Type 3 (Electronic density weighted correction).
 Solution method      : On-the-fly selection.
 Cavity type          : VdW (van der Waals Surface) (Alpha=1.000).
 Cavity algorithm     : GePol (No added spheres)
                        Default sphere list used, NSphG=   17.
                        Tesserae with average area of 0.200 Ang**2.
                        Smoothing algorithm: None.
                        Polarization charges: point-like.
                        Self-potential: constant (ISelfS= 1).
                        Self-field    : global E.n sum rule (ISelfD= 3).
 Solvent              : Water, Eps=  78.355300 Eps(inf)=   1.777849
 ------------------------------------------------------------------------------
 Spheres list:
 ISph  on   Nord     Re0    Alpha      Xe            Ye            Ze
    1   C      1    2.0000  1.000     -0.036918      0.258727      1.487111
    2   N      2    1.8300  1.000     -0.000032      0.000117     -0.000352
    3   C      3    2.0000  1.000      0.072688     -1.487723     -0.250557
    4   C      4    2.0000  1.000      1.214186      0.671201     -0.597573
    5   C      5    2.0000  1.000     -1.249948      0.557844     -0.638887
    6   H      6    1.3000  1.000     -0.920244     -0.234771      1.906773
    7   H      7    1.3000  1.000      0.874804     -0.149506      1.936194
    8   H      8    1.3000  1.000     -0.090714      1.339973      1.654273
    9   H      9    1.3000  1.000      0.982702     -1.878020      0.217863
   10   H     10    1.3000  1.000      0.098753     -1.660638     -1.331862
   11   H     11    1.3000  1.000     -0.812659     -1.960920      0.187918
   12   H     12    1.3000  1.000      2.111392      0.255779     -0.125896
   13   H     13    1.3000  1.000      1.149275      1.747786     -0.406398
   14   H     14    1.3000  1.000      1.228055      0.477486     -1.675698
   15   H     15    1.3000  1.000     -2.120527      0.064402     -0.193770
   16   H     16    1.3000  1.000     -1.211943      0.360982     -1.715651
   17   H     17    1.3000  1.000     -1.288717      1.636337     -0.451845
 ------------------------------------------------------------------------------
 One-electron integrals computed using PRISM.
 PrsmSu:  requested number of processors reduced to:  29 ShMem   1 Linda.
 NBasis=   167 RedAO= T EigKep=  8.26D-04  NBF=   167
 NBsUse=   167 1.00D-06 EigRej= -1.00D+00 NBFU=   167
 Initial guess from the checkpoint file:  "QEMXHQIAXOOASZ-UHFFFAOYSA-N.chk"
 B after Tr=     0.000000   -0.000000   -0.000000
         Rot=    1.000000    0.000000   -0.000000   -0.000000 Ang=   0.00 deg.
 Requested convergence on RMS density matrix=1.00D-08 within 128 cycles.
 Requested convergence on MAX density matrix=1.00D-06.
 Requested convergence on             energy=1.00D-06.
 No special actions if energy rises.
 Inv3:  Mode=1 IEnd=     3006003.
 Iteration    1 A*A^-1 deviation from unit magnitude is 1.41D-14 for    247.
 Iteration    1 A*A^-1 deviation from orthogonality  is 9.33D-15 for    999    247.
 Iteration    1 A^-1*A deviation from unit magnitude is 9.99D-15 for    247.
 Iteration    1 A^-1*A deviation from orthogonality  is 9.01D-15 for    601    326.
 Error on nuclear    polarization charges =  0.01782
 Error on electronic polarization charges = -0.03925
 SCF Done:  E(RB-P86) =  -214.311676427     A.U. after    8 cycles
            NFock=  8  Conv=0.11D-08     -V/T= 2.0061
 --------------------------------------------------------------------
 Variational C-PCM results
 =========================
 <psi(f)|   H    |psi(f)>                     (a.u.) =    -214.219483
 <psi(f)|H+V(f)/2|psi(f)>                     (a.u.) =    -214.311676
 Total free energy in solution:
 - with all non electrostatic terms           (a.u.) =    -214.302134
 --------------------------------------------------------------------
 (Polarized solute)-Solvent               (kcal/mol) =     -57.85
 --------------------------------------------------------------------
 Cavitation energy                        (kcal/mol) =      17.88
 Dispersion energy                        (kcal/mol) =     -12.98
 Repulsion energy                         (kcal/mol) =       1.09
 Total non electrostatic                  (kcal/mol) =       5.99
 --------------------------------------------------------------------
 Partition over spheres:
 Sphere  on Atom  Surface  Charge   GEl     GCav    GDR
    1      C1      14.68  -0.077   -4.46    1.72   -1.07
    2      N2       0.00   0.000    0.00    0.00    0.00
    3      C3      14.70  -0.079   -4.55    1.73   -1.07
    4      C4      14.70  -0.079   -4.56    1.73   -1.07
    5      C5      14.70  -0.080   -4.64    1.73   -1.07
    6      H6       6.48  -0.057   -3.30    0.91   -0.63
    7      H7       6.48  -0.057   -3.30    0.91   -0.63
    8      H8       6.48  -0.057   -3.28    0.91   -0.63
    9      H9       6.48  -0.057   -3.32    0.91   -0.63
   10      H10      6.48  -0.057   -3.30    0.91   -0.63
   11      H11      6.48  -0.057   -3.31    0.91   -0.63
   12      H12      6.48  -0.057   -3.31    0.91   -0.63
   13      H13      6.48  -0.057   -3.29    0.91   -0.63
   14      H14      6.48  -0.057   -3.29    0.91   -0.63
   15      H15      6.48  -0.057   -3.32    0.91   -0.63
   16      H16      6.48  -0.057   -3.31    0.91   -0.63
   17      H17      6.48  -0.057   -3.32    0.91   -0.63
 --------------------------------------------------------------------
 - cavitation energy not included in the total energy.
 - dispersion energy not included in the total energy.
 - repulsion  energy not included in the total energy.
 After PCM corrections, the energy is  -214.311676427     a.u.
 --------------------------------------------------------------------
 Writing COSMO formatted file "QEMXHQIAXOOASZ-UHFFFAOYSA-N.cosmo"
 Recomputed dielectric energy= -0.090281 old= -0.092194 diff= 1.91D-03

 **********************************************************************

            Population analysis using the SCF Density.

 **********************************************************************

 Orbital symmetries:
       Occupied  (A) (A) (A) (A) (A) (A) (A) (A) (A) (A) (A) (A)
                 (A) (A) (A) (A) (A) (A) (A) (A) (A)
       Virtual   (A) (A) (A) (A) (A) (A) (A) (A) (A) (A) (A) (A)
                 (A) (A) (A) (A) (A) (A) (A) (A) (A) (A) (A) (A)
                 (A) (A) (A) (A) (A) (A) (A) (A) (A) (A) (A) (A)
                 (A) (A) (A) (A) (A) (A) (A) (A) (A) (A) (A) (A)
                 (A) (A) (A) (A) (A) (A) (A) (A) (A) (A) (A) (A)
                 (A) (A) (A) (A) (A) (A) (A) (A) (A) (A) (A) (A)
                 (A) (A) (A) (A) (A) (A) (A) (A) (A) (A) (A) (A)
                 (A) (A) (A) (A) (A) (A) (A) (A) (A) (A) (A) (A)
                 (A) (A) (A) (A) (A) (A) (A) (A) (A) (A) (A) (A)
                 (A) (A) (A) (A) (A) (A) (A) (A) (A) (A) (A) (A)
                 (A) (A) (A) (A) (A) (A) (A) (A) (A) (A) (A) (A)
                 (A) (A) (A) (A) (A) (A) (A) (A) (A) (A) (A) (A)
                 (A) (A)
 The electronic state is 1-A.
 Alpha  occ. eigenvalues --  -14.13745  -9.94478  -9.94477  -9.94473  -9.94471
 Alpha  occ. eigenvalues --   -0.93839  -0.68100  -0.68092  -0.68090  -0.57004
 Alpha  occ. eigenvalues --   -0.47379  -0.47375  -0.47369  -0.39821  -0.39817
 Alpha  occ. eigenvalues --   -0.36053  -0.36050  -0.36045  -0.35736  -0.35734
 Alpha  occ. eigenvalues --   -0.35733
 Alpha virt. eigenvalues --   -0.00003   0.03447   0.05422   0.05424   0.05431
 Alpha virt. eigenvalues --    0.07294   0.07295   0.07298   0.10315   0.10317
 Alpha virt. eigenvalues --    0.10319   0.11618   0.11623   0.14936   0.14940
 Alpha virt. eigenvalues --    0.14943   0.18179   0.18181   0.24196   0.24201
 Alpha virt. eigenvalues --    0.24207   0.26115   0.26126   0.26136   0.28182
 Alpha virt. eigenvalues --    0.33894   0.33916   0.33928   0.35279   0.40963
 Alpha virt. eigenvalues --    0.40966   0.40968   0.41989   0.41990   0.41991
 Alpha virt. eigenvalues --    0.43657   0.43661   0.44069   0.44072   0.44075
 Alpha virt. eigenvalues --    0.45846   0.45854   0.45864   0.54079   0.64905
 Alpha virt. eigenvalues --    0.64914   0.64923   0.67646   0.98596   0.98603
 Alpha virt. eigenvalues --    1.15566   1.15574   1.15575   1.18856   1.18858
 Alpha virt. eigenvalues --    1.19199   1.19203   1.19210   1.26925   1.26926
 Alpha virt. eigenvalues --    1.26940   1.27964   1.30145   1.30147   1.30153
 Alpha virt. eigenvalues --    1.37694   1.43820   1.43826   1.43838   1.44522
 Alpha virt. eigenvalues --    1.46562   1.46569   1.46576   1.57502   1.57506
 Alpha virt. eigenvalues --    1.64561   1.64566   1.64580   1.68119   1.68131
 Alpha virt. eigenvalues --    1.68137   1.71325   1.71329   1.71338   1.72299
 Alpha virt. eigenvalues --    1.72317   1.72340   1.74799   1.74803   1.84855
 Alpha virt. eigenvalues --    1.87960   1.88000   1.88009   1.99843   1.99877
 Alpha virt. eigenvalues --    1.99883   2.10362   2.10376   2.10398   2.18471
 Alpha virt. eigenvalues --    2.18486   2.29239   2.29259   2.29285   2.32178
 Alpha virt. eigenvalues --    2.32188   2.32192   2.36388   2.37506   2.37524
 Alpha virt. eigenvalues --    2.37543   2.40666   2.53007   2.53027   2.62435
 Alpha virt. eigenvalues --    2.62454   2.62463   2.62540   2.62563   2.62577
 Alpha virt. eigenvalues --    2.70796   2.70805   2.86457   2.86467   2.86491
 Alpha virt. eigenvalues --    2.90252   3.06381   3.06393   3.06412   3.13155
 Alpha virt. eigenvalues --    3.18839   3.18844   3.18855   3.23413   3.23426
 Alpha virt. eigenvalues --    3.29792   3.29807   3.29830   3.56950   3.56963
 Alpha virt. eigenvalues --    3.56983  21.78617  21.80340  21.80354  21.80377
 Alpha virt. eigenvalues --   31.62148
          Condensed to atoms (all electrons):
               1          2          3          4          5          6
     1  C    5.157347   0.241936  -0.090395  -0.090389  -0.090468   0.389267
     2  N    0.241936   6.451778   0.241974   0.241843   0.241750  -0.017421
     3  C   -0.090395   0.241974   5.157077  -0.090320  -0.090363  -0.007300
     4  C   -0.090389   0.241843  -0.090320   5.156755  -0.090135   0.010528
     5  C   -0.090468   0.241750  -0.090363  -0.090135   5.157240  -0.007379
     6  H    0.389267  -0.017421  -0.007300   0.010528  -0.007379   0.470375
     7  H    0.389293  -0.017464  -0.007344  -0.007270   0.010536  -0.019156
     8  H    0.389254  -0.017458   0.010520  -0.007343  -0.007240  -0.019138
     9  H   -0.007279  -0.017397   0.389258  -0.007345   0.010520  -0.000020
    10  H    0.010523  -0.017474   0.389276  -0.007225  -0.007348   0.000015
    11  H   -0.007336  -0.017398   0.389185   0.010516  -0.007258   0.002657
    12  H   -0.007365  -0.017403  -0.007312   0.389297   0.010515   0.000015
    13  H   -0.007253  -0.017402   0.010520   0.389217  -0.007368   0.000015
    14  H    0.010515  -0.017443  -0.007273   0.389184  -0.007218  -0.000445
    15  H   -0.007259  -0.017433  -0.007359   0.010520   0.389274   0.002663
    16  H    0.010521  -0.017445  -0.007239  -0.007317   0.389243   0.000016
    17  H   -0.007342  -0.017398   0.010510  -0.007247   0.389258  -0.000012
               7          8          9         10         11         12
     1  C    0.389293   0.389254  -0.007279   0.010523  -0.007336  -0.007365
     2  N   -0.017464  -0.017458  -0.017397  -0.017474  -0.017398  -0.017403
     3  C   -0.007344   0.010520   0.389258   0.389276   0.389185  -0.007312
     4  C   -0.007270  -0.007343  -0.007345  -0.007225   0.010516   0.389297
     5  C    0.010536  -0.007240   0.010520  -0.007348  -0.007258   0.010515
     6  H   -0.019156  -0.019138  -0.000020   0.000015   0.002657   0.000015
     7  H    0.470347  -0.019168   0.002655   0.000016  -0.000017   0.002660
     8  H   -0.019168   0.470367   0.000013  -0.000445   0.000017  -0.000014
     9  H    0.002655   0.000013   0.470325  -0.019134  -0.019156   0.002663
    10  H    0.000016  -0.000445  -0.019134   0.470269  -0.019165  -0.000021
    11  H   -0.000017   0.000017  -0.019156  -0.019165   0.470415   0.000015
    12  H    0.002660  -0.000014   0.002663  -0.000021   0.000015   0.470352
    13  H   -0.000027   0.002653   0.000016   0.000012  -0.000445  -0.019180
    14  H    0.000015   0.000015  -0.000018   0.002639   0.000014  -0.019154
    15  H    0.000016  -0.000029   0.000013  -0.000010   0.002656  -0.000445
    16  H   -0.000445   0.000015   0.000014   0.002653  -0.000025   0.000012
    17  H    0.000013   0.002645  -0.000444   0.000015   0.000014   0.000015
              13         14         15         16         17
     1  C   -0.007253   0.010515  -0.007259   0.010521  -0.007342
     2  N   -0.017402  -0.017443  -0.017433  -0.017445  -0.017398
     3  C    0.010520  -0.007273  -0.007359  -0.007239   0.010510
     4  C    0.389217   0.389184   0.010520  -0.007317  -0.007247
     5  C   -0.007368  -0.007218   0.389274   0.389243   0.389258
     6  H    0.000015  -0.000445   0.002663   0.000016  -0.000012
     7  H   -0.000027   0.000015   0.000016  -0.000445   0.000013
     8  H    0.002653   0.000015  -0.000029   0.000015   0.002645
     9  H    0.000016  -0.000018   0.000013   0.000014  -0.000444
    10  H    0.000012   0.002639  -0.000010   0.002653   0.000015
    11  H   -0.000445   0.000014   0.002656  -0.000025   0.000014
    12  H   -0.019180  -0.019154  -0.000445   0.000012   0.000015
    13  H    0.470526  -0.019145   0.000014  -0.000008   0.002651
    14  H   -0.019145   0.470371   0.000014   0.002642  -0.000026
    15  H    0.000014   0.000014   0.470389  -0.019162  -0.019187
    16  H   -0.000008   0.002642  -0.019162   0.470288  -0.019120
    17  H    0.002651  -0.000026  -0.019187  -0.019120   0.470269
 Mulliken charges:
               1
     1  C   -0.283569
     2  N   -0.210143
     3  C   -0.283415
     4  C   -0.283269
     5  C   -0.283559
     6  H    0.195320
     7  H    0.195339
     8  H    0.195334
     9  H    0.195314
    10  H    0.195404
    11  H    0.195310
    12  H    0.195350
    13  H    0.195202
    14  H    0.195313
    15  H    0.195325
    16  H    0.195357
    17  H    0.195387
 Sum of Mulliken charges =   1.00000
 Mulliken charges with hydrogens summed into heavy atoms:
               1
     1  C    0.302424
     2  N   -0.210143
     3  C    0.302613
     4  C    0.302596
     5  C    0.302510
 Electronic spatial extent (au):  <R**2>=            449.0741
 Charge=              1.0000 electrons
 Dipole moment (field-independent basis, Debye):
    X=              0.0009    Y=             -0.0006    Z=             -0.0005  Tot=              0.0012
 Quadrupole moment (field-independent basis, Debye-Ang):
   XX=            -26.4478   YY=            -26.4478   ZZ=            -26.4552
   XY=             -0.0006   XZ=              0.0001   YZ=             -0.0003
 Traceless Quadrupole moment (field-independent basis, Debye-Ang):
   XX=              0.0025   YY=              0.0025   ZZ=             -0.0049
   XY=             -0.0006   XZ=              0.0001   YZ=             -0.0003
 Octapole moment (field-independent basis, Debye-Ang**2):
  XXX=              0.0035  YYY=             -0.0855  ZZZ=              0.0693  XYY=              0.0093
  XXY=              0.0586  XXZ=             -0.0586  XZZ=             -0.0094  YZZ=              0.0278
  YYZ=             -0.0283  XYZ=              0.0027
 Hexadecapole moment (field-independent basis, Debye-Ang**3):
 XXXX=           -177.8787 YYYY=           -175.3343 ZZZZ=           -175.2896 XXXY=              0.4410
 XXXZ=              0.7336 YYYX=             -0.3760 YYYZ=              2.3201 ZZZX=             -0.2280
 ZZZY=              2.4329 XXYY=            -60.8273 XXZZ=            -60.7782 YYZZ=            -63.2271
 XXYZ=             -4.7563 YYXZ=             -0.5044 ZZXY=             -0.0770
 N-N= 2.128034022849D+02 E-N=-9.121131059778D+02  KE= 2.130084879818D+02
 Unable to Open any file for archive entry.
 1\1\GINC-TCN1683\SP\RBP86\TZVP\C4H12N1(1+)\ELENAA\23-Feb-2021\0\\# BP8
 6/TZVP SCRF=COSMORS geom=CHECKPOINT guess=CHECKPOINT\\COSMO-file for #
 QEMXHQIAXOOASZ-UHFFFAOYSA-N\\1,1\C,0,1.7594482702,-0.7668334646,-0.265
 716339\N,0,0.8391962206,-0.3716767027,0.8646701782\C,0,-0.0700106486,0
 .7440856807,0.4064397315\C,0,1.6610960576,0.0993905377,2.0410753943\C,
 0,0.0069159836,-1.5631568609,1.2754773935\H,0,1.1506332112,-1.10396820
 92,-1.1116517966\H,0,2.3567727466,0.1053690006,-0.552130501\H,0,2.4116
 852604,-1.5764860111,0.0792179664\H,0,0.5465345951,1.6001682067,0.1117
 048334\H,0,-0.7311423353,1.0203481717,1.2349227237\H,0,-0.6587818842,0
 .3890347948,-0.4463800408\H,0,2.2573776359,0.9634129944,1.7281110392\H
 ,0,2.3166147896,-0.717966298,2.3604791305\H,0,0.9824349831,0.381035305
 8,2.8535813064\H,0,-0.5800406694,-1.8945395042,0.4122345106\H,0,-0.657
 3754713,-1.2623951574,2.092715937\H,0,0.6779112549,-2.3627824842,1.607
 1385325\\Version=ES64L-G16RevC.01\State=1-A\HF=-214.3116764\RMSD=1.106
 e-09\Dipole=-0.000019,0.0004197,0.0001691\Quadrupole=-0.0002,0.0021577
 ,-0.0019577,0.0005109,0.0022811,-0.0007889\PG=C01 [X(C4H12N1)]\\@
 The archive entry for this job was punched.


 HO!  SUCH BUGS AND GOBLINS IN MY LIFE!

                            -- HAMLET, ACT 5, SCENE 2
 Job cpu time:       0 days  0 hours  2 minutes 43.5 seconds.
 Elapsed time:       0 days  0 hours  0 minutes  5.5 seconds.
 File lengths (MBytes):  RWF=     30 Int=      0 D2E=      0 Chk=      6 Scr=      1
 Normal termination of Gaussian 16 at Tue Feb 23 00:13:48 2021.
