 Entering Gaussian System, Link 0=g16
 Input=QGZKDVFQNNGYKY-UHFFFAOYSA-O.gjf
 Output=QGZKDVFQNNGYKY-UHFFFAOYSA-O.log
 Initial command:
 /sw/arch/RedHatEnterpriseServer7/EB_production/2019/software/Gaussian/g16.c01/l1.exe "/scratch-local/elenaa.9715948/Gau-18721.inp" -scrdir="/scratch-local/elenaa.9715948/"
 Entering Link 1 = /sw/arch/RedHatEnterpriseServer7/EB_production/2019/software/Gaussian/g16.c01/l1.exe PID=     18723.
  
 Copyright (c) 1988-2019, Gaussian, Inc.  All Rights Reserved.
  
 This is part of the Gaussian(R) 16 program.  It is based on
 the Gaussian(R) 09 system (copyright 2009, Gaussian, Inc.),
 the Gaussian(R) 03 system (copyright 2003, Gaussian, Inc.),
 the Gaussian(R) 98 system (copyright 1998, Gaussian, Inc.),
 the Gaussian(R) 94 system (copyright 1995, Gaussian, Inc.),
 the Gaussian 92(TM) system (copyright 1992, Gaussian, Inc.),
 the Gaussian 90(TM) system (copyright 1990, Gaussian, Inc.),
 the Gaussian 88(TM) system (copyright 1988, Gaussian, Inc.),
 the Gaussian 86(TM) system (copyright 1986, Carnegie Mellon
 University), and the Gaussian 82(TM) system (copyright 1983,
 Carnegie Mellon University). Gaussian is a federally registered
 trademark of Gaussian, Inc.
  
 This software contains proprietary and confidential information,
 including trade secrets, belonging to Gaussian, Inc.
  
 This software is provided under written license and may be
 used, copied, transmitted, or stored only in accord with that
 written license.
  
 The following legend is applicable only to US Government
 contracts under FAR:
  
                    RESTRICTED RIGHTS LEGEND
  
 Use, reproduction and disclosure by the US Government is
 subject to restrictions as set forth in subparagraphs (a)
 and (c) of the Commercial Computer Software - Restricted
 Rights clause in FAR 52.227-19.
  
 Gaussian, Inc.
 340 Quinnipiac St., Bldg. 40, Wallingford CT 06492
  
  
 ---------------------------------------------------------------
 Warning -- This program may not be used in any manner that
 competes with the business of Gaussian, Inc. or will provide
 assistance to any competitor of Gaussian, Inc.  The licensee
 of this program is prohibited from giving any competitor of
 Gaussian, Inc. access to this program.  By using this program,
 the user acknowledges that Gaussian, Inc. is engaged in the
 business of creating and licensing software in the field of
 computational chemistry and represents and warrants to the
 licensee that it is not a competitor of Gaussian, Inc. and that
 it will not use this program in any manner prohibited above.
 ---------------------------------------------------------------
  

 Cite this work as:
 Gaussian 16, Revision C.01,
 M. J. Frisch, G. W. Trucks, H. B. Schlegel, G. E. Scuseria, 
 M. A. Robb, J. R. Cheeseman, G. Scalmani, V. Barone, 
 G. A. Petersson, H. Nakatsuji, X. Li, M. Caricato, A. V. Marenich, 
 J. Bloino, B. G. Janesko, R. Gomperts, B. Mennucci, H. P. Hratchian, 
 J. V. Ortiz, A. F. Izmaylov, J. L. Sonnenberg, D. Williams-Young, 
 F. Ding, F. Lipparini, F. Egidi, J. Goings, B. Peng, A. Petrone, 
 T. Henderson, D. Ranasinghe, V. G. Zakrzewski, J. Gao, N. Rega, 
 G. Zheng, W. Liang, M. Hada, M. Ehara, K. Toyota, R. Fukuda, 
 J. Hasegawa, M. Ishida, T. Nakajima, Y. Honda, O. Kitao, H. Nakai, 
 T. Vreven, K. Throssell, J. A. Montgomery, Jr., J. E. Peralta, 
 F. Ogliaro, M. J. Bearpark, J. J. Heyd, E. N. Brothers, K. N. Kudin, 
 V. N. Staroverov, T. A. Keith, R. Kobayashi, J. Normand, 
 K. Raghavachari, A. P. Rendell, J. C. Burant, S. S. Iyengar, 
 J. Tomasi, M. Cossi, J. M. Millam, M. Klene, C. Adamo, R. Cammi, 
 J. W. Ochterski, R. L. Martin, K. Morokuma, O. Farkas, 
 J. B. Foresman, and D. J. Fox, Gaussian, Inc., Wallingford CT, 2019.
 
 ******************************************
 Gaussian 16:  ES64L-G16RevC.01  3-Jul-2019
                23-Feb-2021 
 ******************************************
 %chk=QGZKDVFQNNGYKY-UHFFFAOYSA-O.chk
 %NProcShared=32
 Will use up to   32 processors via shared memory.
 -------------------------------------------------------------
 #P BP86/TZVP EmpiricalDispersion=GD3 SCRF=(Solvent=Water) Opt
 -------------------------------------------------------------
 1/18=20,19=15,26=3,38=1/1,3;
 2/9=110,12=2,17=6,18=5,40=1/2;
 3/5=19,7=101,11=2,25=1,30=1,70=2201,71=1,72=1,74=404,124=31/1,2,3;
 4//1;
 5/5=2,38=5,53=1/2;
 6/7=2,8=2,9=2,10=2,28=1/1;
 7//1,2,3,16;
 1/18=20,19=15,26=3/3(2);
 2/9=110/2;
 99//99;
 2/9=110/2;
 3/5=19,7=101,11=2,25=1,30=1,70=2205,71=1,72=1,74=404,124=31/1,2,3;
 4/5=5,16=3,69=1/1;
 5/5=2,38=5,53=1/2;
 7//1,2,3,16;
 1/18=20,19=15,26=3/3(-5);
 2/9=110/2;
 6/7=2,8=2,9=2,10=2,19=2,28=1/1;
 99/9=1/99;
 Leave Link    1 at Tue Feb 23 00:11:08 2021, MaxMem=           0 cpu:               2.3 elap:               0.1
 (Enter /sw/arch/RedHatEnterpriseServer7/EB_production/2019/software/Gaussian/g16.c01/l101.exe)
 -------------------------------------
 Particle #QGZKDVFQNNGYKY-UHFFFAOYSA-O
 -------------------------------------
 Symbolic Z-matrix:
 Charge =  1 Multiplicity = 1
 N                     0.        0.        0. 
 H                    -0.34067  -0.48178   0.83446 
 H                    -0.34067  -0.48178  -0.83446 
 H                    -0.34067   0.96355   0. 
 H                     1.022     0.        0. 
 
 ITRead=  0  0  0  0  0
 MicOpt= -1 -1 -1 -1 -1
 NAtoms=      5 NQM=        5 NQMF=       0 NMMI=      0 NMMIF=      0
                NMic=       0 NMicF=      0.
                    Isotopes and Nuclear Properties:
 (Nuclear quadrupole moments (NQMom) in fm**2, nuclear magnetic moments (NMagM)
  in nuclear magnetons)

  Atom         1           2           3           4           5
 IAtWgt=          14           1           1           1           1
 AtmWgt=  14.0030740   1.0078250   1.0078250   1.0078250   1.0078250
 NucSpn=           2           1           1           1           1
 AtZEff=  -0.0000000  -0.0000000  -0.0000000  -0.0000000  -0.0000000
 NQMom=    2.0440000   0.0000000   0.0000000   0.0000000   0.0000000
 NMagM=    0.4037610   2.7928460   2.7928460   2.7928460   2.7928460
 AtZNuc=   7.0000000   1.0000000   1.0000000   1.0000000   1.0000000
 Leave Link  101 at Tue Feb 23 00:11:08 2021, MaxMem=   104857600 cpu:               2.6 elap:               0.1
 (Enter /sw/arch/RedHatEnterpriseServer7/EB_production/2019/software/Gaussian/g16.c01/l103.exe)

 GradGradGradGradGradGradGradGradGradGradGradGradGradGradGradGradGradGrad
 Berny optimization.
 Initialization pass.
                           ----------------------------
                           !    Initial Parameters    !
                           ! (Angstroms and Degrees)  !
 --------------------------                            --------------------------
 ! Name  Definition              Value          Derivative Info.                !
 --------------------------------------------------------------------------------
 ! R1    R(1,2)                  1.022          estimate D2E/DX2                !
 ! R2    R(1,3)                  1.022          estimate D2E/DX2                !
 ! R3    R(1,4)                  1.022          estimate D2E/DX2                !
 ! R4    R(1,5)                  1.022          estimate D2E/DX2                !
 ! A1    A(2,1,3)              109.4707         estimate D2E/DX2                !
 ! A2    A(2,1,4)              109.4712         estimate D2E/DX2                !
 ! A3    A(2,1,5)              109.4713         estimate D2E/DX2                !
 ! A4    A(3,1,4)              109.4712         estimate D2E/DX2                !
 ! A5    A(3,1,5)              109.4713         estimate D2E/DX2                !
 ! A6    A(4,1,5)              109.4714         estimate D2E/DX2                !
 ! D1    D(2,1,4,3)           -119.9994         estimate D2E/DX2                !
 ! D2    D(2,1,5,3)            119.9996         estimate D2E/DX2                !
 ! D3    D(2,1,5,4)           -120.0002         estimate D2E/DX2                !
 ! D4    D(3,1,5,4)            120.0002         estimate D2E/DX2                !
 --------------------------------------------------------------------------------
 Trust Radius=3.00D-01 FncErr=1.00D-07 GrdErr=1.00D-06 EigMax=2.50D+02 EigMin=1.00D-04
 Number of steps in this run=     24 maximum allowed number of steps=    100.
 GradGradGradGradGradGradGradGradGradGradGradGradGradGradGradGradGradGrad

 Leave Link  103 at Tue Feb 23 00:11:08 2021, MaxMem=   104857600 cpu:               0.5 elap:               0.0
 (Enter /sw/arch/RedHatEnterpriseServer7/EB_production/2019/software/Gaussian/g16.c01/l202.exe)
                          Input orientation:                          
 ---------------------------------------------------------------------
 Center     Atomic      Atomic             Coordinates (Angstroms)
 Number     Number       Type             X           Y           Z
 ---------------------------------------------------------------------
      1          7           0        0.000000    0.000000    0.000000
      2          1           0       -0.340670   -0.481780    0.834460
      3          1           0       -0.340670   -0.481780   -0.834460
      4          1           0       -0.340670    0.963550    0.000000
      5          1           0        1.022000    0.000000    0.000000
 ---------------------------------------------------------------------
                    Distance matrix (angstroms):
                    1          2          3          4          5
     1  N    0.000000
     2  H    1.022004   0.000000
     3  H    1.022004   1.668920   0.000000
     4  H    1.022000   1.668922   1.668922   0.000000
     5  H    1.022000   1.668923   1.668923   1.668921   0.000000
 This structure is nearly, but not quite of a higher symmetry.
 Consider Symm=Loose if the higher symmetry is desired.
 Stoichiometry    H4N(1+)
 Framework group  CS[SG(H2N),X(H2)]
 Deg. of freedom     6
 Full point group                 CS      NOp   2
 Largest Abelian subgroup         CS      NOp   2
 Largest concise Abelian subgroup CS      NOp   2
                         Standard orientation:                         
 ---------------------------------------------------------------------
 Center     Atomic      Atomic             Coordinates (Angstroms)
 Number     Number       Type             X           Y           Z
 ---------------------------------------------------------------------
      1          7           0       -0.000000    0.000001    0.000000
      2          1           0        0.099780   -0.581559    0.834460
      3          1           0        0.099780   -0.581559   -0.834460
      4          1           0       -0.922223    0.440444    0.000000
      5          1           0        0.722663    0.722664   -0.000000
 ---------------------------------------------------------------------
 Rotational constants (GHZ):         180.0365634         180.0361223         180.0359964
 Leave Link  202 at Tue Feb 23 00:11:08 2021, MaxMem=   104857600 cpu:               0.9 elap:               0.1
 (Enter /sw/arch/RedHatEnterpriseServer7/EB_production/2019/software/Gaussian/g16.c01/l301.exe)
 Standard basis: TZVP (5D, 7F)
 Ernie: Thresh=  0.10000D-02 Tol=  0.10000D-05 Strict=F.
 There are    31 symmetry adapted cartesian basis functions of A'  symmetry.
 There are    13 symmetry adapted cartesian basis functions of A"  symmetry.
 There are    30 symmetry adapted basis functions of A'  symmetry.
 There are    13 symmetry adapted basis functions of A"  symmetry.
    43 basis functions,    67 primitive gaussians,    44 cartesian basis functions
     5 alpha electrons        5 beta electrons
       nuclear repulsion energy        16.4004419765 Hartrees.
 IExCor=  404 DFT=T Ex=B Corr=P86 ExCW=0 ScaHFX=  0.000000
 ScaDFX=  1.000000  1.000000  1.000000  1.000000 ScalE2=  1.000000  1.000000
 IRadAn=      5 IRanWt=     -1 IRanGd=            0 ICorTp=0 IEmpDi=131
 NAtoms=    5 NActive=    5 NUniq=    4 SFac= 1.56D+00 NAtFMM=   60 NAOKFM=F Big=F
 Integral buffers will be    131072 words long.
 Raffenetti 2 integral format.
 Two-electron integral symmetry is turned on.
 R6Disp:  Grimme-D3 Dispersion energy=       -0.0001007122 Hartrees.
 Nuclear repulsion after empirical dispersion term =       16.4003412643 Hartrees.
 ------------------------------------------------------------------------------
 Polarizable Continuum Model (PCM)
 =================================
 Model                : PCM.
 Atomic radii         : UFF (Universal Force Field).
 Polarization charges : Total charges.
 Charge compensation  : None.
 Solution method      : On-the-fly selection.
 Cavity type          : Scaled VdW (van der Waals Surface) (Alpha=1.100).
 Cavity algorithm     : GePol (No added spheres)
                        Default sphere list used, NSphG=    5.
                        Lebedev-Laikov grids with approx.  5.0 points / Ang**2.
                        Smoothing algorithm: York/Karplus (Gamma=1.0000).
                        Polarization charges: spherical gaussians, with
                                              point-specific exponents (IZeta= 3).
                        Self-potential: point-specific (ISelfS= 7).
                        Self-field    : sphere-specific E.n sum rule (ISelfD= 2).
 1st derivatives      : Analytical E(r).r(x)/FMM algorithm (CHGder, D1EAlg=3).
                        Cavity 1st derivative terms included.
 Solvent              : Water, Eps=  78.355300 Eps(inf)=   1.777849
 ------------------------------------------------------------------------------
 Spheres list:
 ISph  on   Nord     Re0    Alpha      Xe            Ye            Ze
    1   N      1    1.8300  1.100      0.000000      0.000001      0.000000
    2   H      2    1.4430  1.100      0.099780     -0.581559      0.834460
    3   H      3    1.4430  1.100      0.099780     -0.581559     -0.834460
    4   H      4    1.4430  1.100     -0.922223      0.440444      0.000000
    5   H      5    1.4430  1.100      0.722663      0.722664     -0.000000
 ------------------------------------------------------------------------------
 GePol: Number of generator spheres                  =       5
 GePol: Total number of spheres                      =       5
 GePol: Number of exposed spheres                    =       5 (100.00%)
 GePol: Number of points                             =     488
 GePol: Average weight of points                     =       0.14
 GePol: Minimum weight of points                     =   0.75D-08
 GePol: Maximum weight of points                     =    0.20212
 GePol: Number of points with low weight             =      38
 GePol: Fraction of low-weight points (<1% of avg)   =       7.79%
 GePol: Cavity surface area                          =     66.900 Ang**2
 GePol: Cavity volume                                =     47.762 Ang**3
 Leave Link  301 at Tue Feb 23 00:11:08 2021, MaxMem=   104857600 cpu:               1.7 elap:               0.1
 (Enter /sw/arch/RedHatEnterpriseServer7/EB_production/2019/software/Gaussian/g16.c01/l302.exe)
 NPDir=0 NMtPBC=     1 NCelOv=     1 NCel=       1 NClECP=     1 NCelD=      1
         NCelK=      1 NCelE2=     1 NClLst=     1 CellRange=     0.0.
 One-electron integrals computed using PRISM.
 One-electron integral symmetry used in STVInt
 PrsmSu:  requested number of processors reduced to:  30 ShMem   1 Linda.
 NBasis=    43 RedAO= T EigKep=  5.65D-03  NBF=    30    13
 NBsUse=    43 1.00D-06 EigRej= -1.00D+00 NBFU=    30    13
 Precomputing XC quadrature grid using
 IXCGrd= 4 IRadAn=           5 IRanWt=          -1 IRanGd=           0 AccXCQ= 0.00D+00.
 Generated NRdTot=       0 NPtTot=           0 NUsed=           0 NTot=          32
 NSgBfM=    44    44    44    44    44 MxSgAt=     5 MxSgA2=     5.
 Leave Link  302 at Tue Feb 23 00:11:09 2021, MaxMem=   104857600 cpu:               4.6 elap:               0.2
 (Enter /sw/arch/RedHatEnterpriseServer7/EB_production/2019/software/Gaussian/g16.c01/l303.exe)
 DipDrv:  MaxL=1.
 Leave Link  303 at Tue Feb 23 00:11:09 2021, MaxMem=   104857600 cpu:               3.3 elap:               0.2
 (Enter /sw/arch/RedHatEnterpriseServer7/EB_production/2019/software/Gaussian/g16.c01/l401.exe)
 ExpMin= 1.03D-01 ExpMax= 1.97D+04 ExpMxC= 6.73D+02 IAcc=3 IRadAn=         5 AccDes= 0.00D+00
 Harris functional with IExCor=  404 and IRadAn=       5 diagonalized for initial guess.
 HarFok:  IExCor=  404 AccDes= 0.00D+00 IRadAn=         5 IDoV= 1 UseB2=F ITyADJ=14
 ICtDFT=  3500011 ScaDFX=  1.000000  1.000000  1.000000  1.000000
 FoFCou: FMM=F IPFlag=           0 FMFlag=      100000 FMFlg1=           0
         NFxFlg=           0 DoJE=T BraDBF=F KetDBF=T FulRan=T
         wScrn=  0.000000 ICntrl=       500 IOpCl=  0 I1Cent=   200000004 NGrid=           0
         NMat0=    1 NMatS0=      1 NMatT0=    0 NMatD0=    1 NMtDS0=    0 NMtDT0=    0
 Petite list used in FoFCou.
 Harris En= -57.0270813382502    
 JPrj=0 DoOrth=F DoCkMO=F.
 Initial guess orbital symmetries:
       Occupied  (A') (A') (A') (A') (A")
       Virtual   (A') (A") (A') (A') (A") (A') (A') (A') (A") (A')
                 (A') (A') (A') (A") (A") (A') (A") (A') (A') (A")
                 (A') (A') (A') (A") (A") (A') (A') (A') (A') (A")
                 (A') (A") (A') (A') (A") (A') (A') (A')
 The electronic state of the initial guess is 1-A'.
 Leave Link  401 at Tue Feb 23 00:11:09 2021, MaxMem=   104857600 cpu:               3.8 elap:               0.2
 (Enter /sw/arch/RedHatEnterpriseServer7/EB_production/2019/software/Gaussian/g16.c01/l502.exe)
 Keep J ints in memory in symmetry-blocked form, NReq=28243528.
 FoFCou: FMM=F IPFlag=           0 FMFlag=           0 FMFlg1=           0
         NFxFlg=           0 DoJE=F BraDBF=F KetDBF=F FulRan=T
         wScrn=  0.000000 ICntrl=       600 IOpCl=  0 I1Cent=           0 NGrid=           0
         NMat0=    1 NMatS0=    946 NMatT0=    0 NMatD0=    1 NMtDS0=    0 NMtDT0=    0
 Petite list used in FoFCou.
 Closed shell SCF:
 Using DIIS extrapolation, IDIIS=  1040.
 NGot=   104857600 LenX=   104617966 LenY=   104615589
 Requested convergence on RMS density matrix=1.00D-08 within 128 cycles.
 Requested convergence on MAX density matrix=1.00D-06.
 Requested convergence on             energy=1.00D-06.
 No special actions if energy rises.

 Cycle   1  Pass 1  IDiag  1:
 Inv3:  Mode=1 IEnd=      714432.
 Iteration    1 A*A^-1 deviation from unit magnitude is 2.44D-15 for     57.
 Iteration    1 A*A^-1 deviation from orthogonality  is 1.55D-15 for    361    241.
 Iteration    1 A^-1*A deviation from unit magnitude is 3.11D-15 for    367.
 Iteration    1 A^-1*A deviation from orthogonality  is 1.55D-15 for    464    202.
 E= -57.0188992671011    
 DIIS: error= 2.55D-02 at cycle   1 NSaved=   1.
 NSaved= 1 IEnMin= 1 EnMin= -57.0188992671011     IErMin= 1 ErrMin= 2.55D-02
 ErrMax= 2.55D-02  0.00D+00 EMaxC= 1.00D-01 BMatC= 2.97D-02 BMatP= 2.97D-02
 IDIUse=3 WtCom= 7.45D-01 WtEn= 2.55D-01
 Coeff-Com:  0.100D+01
 Coeff-En:   0.100D+01
 Coeff:      0.100D+01
 Gap=     0.479 Goal=   None    Shift=    0.000
 GapD=    0.479 DampG=2.000 DampE=0.500 DampFc=1.0000 IDamp=-1.
 RMSDP=3.45D-03 MaxDP=4.89D-02              OVMax= 8.71D-02

 Cycle   2  Pass 1  IDiag  1:
 E= -56.9952883833049     Delta-E=        0.023610883796 Rises=F Damp=F
 DIIS: error= 4.17D-02 at cycle   2 NSaved=   2.
 NSaved= 2 IEnMin= 1 EnMin= -57.0188992671011     IErMin= 1 ErrMin= 2.55D-02
 ErrMax= 4.17D-02  0.00D+00 EMaxC= 1.00D-01 BMatC= 5.44D-02 BMatP= 2.97D-02
 IDIUse=2 WtCom= 0.00D+00 WtEn= 1.00D+00
 Coeff-En:   0.670D+00 0.330D+00
 Coeff:      0.670D+00 0.330D+00
 Gap=     0.517 Goal=   None    Shift=    0.000
 RMSDP=1.80D-03 MaxDP=2.15D-02 DE= 2.36D-02 OVMax= 4.66D-02

 Cycle   3  Pass 1  IDiag  1:
 E= -57.0365582640302     Delta-E=       -0.041269880725 Rises=F Damp=F
 DIIS: error= 6.22D-03 at cycle   3 NSaved=   3.
 NSaved= 3 IEnMin= 3 EnMin= -57.0365582640302     IErMin= 3 ErrMin= 6.22D-03
 ErrMax= 6.22D-03  0.00D+00 EMaxC= 1.00D-01 BMatC= 1.42D-03 BMatP= 2.97D-02
 IDIUse=3 WtCom= 9.38D-01 WtEn= 6.22D-02
 Coeff-Com:  0.386D-01-0.153D+00 0.111D+01
 Coeff-En:   0.000D+00 0.000D+00 0.100D+01
 Coeff:      0.362D-01-0.143D+00 0.111D+01
 Gap=     0.523 Goal=   None    Shift=    0.000
 RMSDP=3.54D-04 MaxDP=4.76D-03 DE=-4.13D-02 OVMax= 8.86D-03

 Cycle   4  Pass 1  IDiag  1:
 E= -57.0375868156686     Delta-E=       -0.001028551638 Rises=F Damp=F
 DIIS: error= 3.83D-04 at cycle   4 NSaved=   4.
 NSaved= 4 IEnMin= 4 EnMin= -57.0375868156686     IErMin= 4 ErrMin= 3.83D-04
 ErrMax= 3.83D-04  0.00D+00 EMaxC= 1.00D-01 BMatC= 6.02D-06 BMatP= 1.42D-03
 IDIUse=3 WtCom= 9.96D-01 WtEn= 3.83D-03
 Coeff-Com:  0.412D-02-0.730D-02 0.120D+00 0.883D+00
 Coeff-En:   0.000D+00 0.000D+00 0.000D+00 0.100D+01
 Coeff:      0.411D-02-0.727D-02 0.119D+00 0.884D+00
 Gap=     0.523 Goal=   None    Shift=    0.000
 RMSDP=2.07D-05 MaxDP=2.91D-04 DE=-1.03D-03 OVMax= 5.01D-04

 Cycle   5  Pass 1  IDiag  1:
 E= -57.0375908627791     Delta-E=       -0.000004047111 Rises=F Damp=F
 DIIS: error= 8.18D-06 at cycle   5 NSaved=   5.
 NSaved= 5 IEnMin= 5 EnMin= -57.0375908627791     IErMin= 5 ErrMin= 8.18D-06
 ErrMax= 8.18D-06  0.00D+00 EMaxC= 1.00D-01 BMatC= 1.71D-09 BMatP= 6.02D-06
 IDIUse=1 WtCom= 1.00D+00 WtEn= 0.00D+00
 Coeff-Com: -0.309D-03 0.711D-03-0.552D-02-0.132D-01 0.102D+01
 Coeff:     -0.309D-03 0.711D-03-0.552D-02-0.132D-01 0.102D+01
 Gap=     0.523 Goal=   None    Shift=    0.000
 RMSDP=4.61D-07 MaxDP=5.73D-06 DE=-4.05D-06 OVMax= 1.03D-05

 Cycle   6  Pass 1  IDiag  1:
 E= -57.0375908641290     Delta-E=       -0.000000001350 Rises=F Damp=F
 DIIS: error= 1.92D-07 at cycle   6 NSaved=   6.
 NSaved= 6 IEnMin= 6 EnMin= -57.0375908641290     IErMin= 6 ErrMin= 1.92D-07
 ErrMax= 1.92D-07  0.00D+00 EMaxC= 1.00D-01 BMatC= 1.00D-12 BMatP= 1.71D-09
 IDIUse=1 WtCom= 1.00D+00 WtEn= 0.00D+00
 Coeff-Com: -0.206D-04 0.608D-04-0.493D-03-0.138D-02 0.666D-01 0.935D+00
 Coeff:     -0.206D-04 0.608D-04-0.493D-03-0.138D-02 0.666D-01 0.935D+00
 Gap=     0.523 Goal=   None    Shift=    0.000
 RMSDP=2.00D-08 MaxDP=2.25D-07 DE=-1.35D-09 OVMax= 4.94D-07

 Cycle   7  Pass 1  IDiag  1:
 E= -57.0375908641297     Delta-E=       -0.000000000001 Rises=F Damp=F
 DIIS: error= 8.56D-08 at cycle   7 NSaved=   7.
 NSaved= 7 IEnMin= 7 EnMin= -57.0375908641297     IErMin= 7 ErrMin= 8.56D-08
 ErrMax= 8.56D-08  0.00D+00 EMaxC= 1.00D-01 BMatC= 1.41D-13 BMatP= 1.00D-12
 IDIUse=1 WtCom= 1.00D+00 WtEn= 0.00D+00
 Coeff-Com: -0.205D-05 0.989D-05-0.836D-04-0.257D-03 0.663D-02 0.298D+00
 Coeff-Com:  0.695D+00
 Coeff:     -0.205D-05 0.989D-05-0.836D-04-0.257D-03 0.663D-02 0.298D+00
 Coeff:      0.695D+00
 Gap=     0.523 Goal=   None    Shift=    0.000
 RMSDP=5.42D-09 MaxDP=5.37D-08 DE=-7.25D-13 OVMax= 1.41D-07

 Error on total polarization charges =  0.00007
 SCF Done:  E(RB-P86) =  -57.0375908641     A.U. after    7 cycles
            NFock=  7  Conv=0.54D-08     -V/T= 2.0062
 KE= 5.668650620040D+01 PE=-1.617325382119D+02 EE= 3.160809988307D+01
 Leave Link  502 at Tue Feb 23 00:11:10 2021, MaxMem=   104857600 cpu:              23.1 elap:               0.8
 (Enter /sw/arch/RedHatEnterpriseServer7/EB_production/2019/software/Gaussian/g16.c01/l601.exe)
 Copying SCF densities to generalized density rwf, IOpCl= 0 IROHF=0.

 **********************************************************************

            Population analysis using the SCF Density.

 **********************************************************************

 Orbital symmetries:
       Occupied  (A') (A') (A') (A") (A')
       Virtual   (A') (A') (A") (A') (A") (A') (A') (A') (A') (A")
                 (A') (A') (A') (A") (A") (A') (A") (A') (A") (A')
                 (A') (A') (A") (A') (A') (A") (A') (A') (A') (A")
                 (A') (A') (A") (A') (A") (A') (A') (A')
 The electronic state is 1-A'.
 Alpha  occ. eigenvalues --  -14.13803  -0.93845  -0.54405  -0.54404  -0.54403
 Alpha virt. eigenvalues --   -0.02094   0.05504   0.05505   0.05507   0.21393
 Alpha virt. eigenvalues --    0.21393   0.21399   0.36046   0.41637   0.41637
 Alpha virt. eigenvalues --    0.41639   0.55640   0.95164   0.95165   1.42246
 Alpha virt. eigenvalues --    1.42248   1.42248   1.47142   1.47142   1.47145
 Alpha virt. eigenvalues --    1.77946   1.79629   1.79630   1.79631   2.27163
 Alpha virt. eigenvalues --    2.27163   2.27165   2.37986   2.39225   2.39227
 Alpha virt. eigenvalues --    2.39228   2.65174   2.65175   2.89500   3.72692
 Alpha virt. eigenvalues --    3.72693   3.72694  31.08868
          Condensed to atoms (all electrons):
               1          2          3          4          5
     1  N    5.912103   0.354731   0.354731   0.354741   0.354713
     2  H    0.354731   0.336871  -0.008111  -0.008127  -0.008107
     3  H    0.354731  -0.008111   0.336871  -0.008127  -0.008107
     4  H    0.354741  -0.008127  -0.008127   0.336910  -0.008125
     5  H    0.354713  -0.008107  -0.008107  -0.008125   0.336818
 Mulliken charges:
               1
     1  N   -0.331019
     2  H    0.332742
     3  H    0.332742
     4  H    0.332728
     5  H    0.332807
 Sum of Mulliken charges =   1.00000
 Mulliken charges with hydrogens summed into heavy atoms:
               1
     1  N    1.000000
 Electronic spatial extent (au):  <R**2>=             24.6582
 Charge=              1.0000 electrons
 Dipole moment (field-independent basis, Debye):
    X=              0.0006    Y=             -0.0001    Z=             -0.0000  Tot=              0.0006
 Quadrupole moment (field-independent basis, Debye-Ang):
   XX=             -4.3661   YY=             -4.3662   ZZ=             -4.3663
   XY=              0.0001   XZ=              0.0000   YZ=              0.0000
 Traceless Quadrupole moment (field-independent basis, Debye-Ang):
   XX=              0.0001   YY=              0.0000   ZZ=             -0.0001
   XY=              0.0001   XZ=              0.0000   YZ=              0.0000
 Octapole moment (field-independent basis, Debye-Ang**2):
  XXX=             -0.8719  YYY=              0.1497  ZZZ=             -0.0000  XYY=              0.5736
  XXY=              1.5957  XXZ=              0.0000  XZZ=              0.2997  YZZ=             -1.7454
  YYZ=             -0.0000  XYZ=             -0.0000
 Hexadecapole moment (field-independent basis, Debye-Ang**3):
 XXXX=             -6.1862 YYYY=             -7.3626 ZZZZ=             -6.2550 XXXY=             -0.1899
 XXXZ=             -0.0000 YYYX=              0.3982 YYYZ=              0.0000 ZZZX=              0.0000
 ZZZY=              0.0000 XXYY=             -1.7729 XXZZ=             -2.8809 YYZZ=             -1.7047
 XXYZ=             -0.0000 YYXZ=             -0.0000 ZZXY=             -0.2079
 N-N= 1.640034126429D+01 E-N=-1.617325384233D+02  KE= 5.668650620040D+01
 Symmetry A'   KE= 5.377736102862D+01
 Symmetry A"   KE= 2.909145171779D+00
 No NMR shielding tensors so no spin-rotation constants.
 Leave Link  601 at Tue Feb 23 00:11:10 2021, MaxMem=   104857600 cpu:               5.7 elap:               0.3
 (Enter /sw/arch/RedHatEnterpriseServer7/EB_production/2019/software/Gaussian/g16.c01/l701.exe)
 ... and contract with generalized density number  0.
 Compute integral first derivatives.
 R6Disp: Adding Grimme-D3 dispersion energy 1st derivatives to the gradient.
 PrsmSu:  requested number of processors reduced to:  30 ShMem   1 Linda.
 D1PCM: PCM CHGder 1st derivatives, ID1Alg=3 FixD1E=F DoIter=F DoCFld=F I1PDM=0.
 GePol: Maximum number of non-zero 1st derivatives   =     262
 CoulSu:  requested number of processors reduced to:  30 ShMem   1 Linda.
 CoulSu:  requested number of processors reduced to:  31 ShMem   1 Linda.
 Leave Link  701 at Tue Feb 23 00:11:11 2021, MaxMem=   104857600 cpu:              12.2 elap:               0.4
 (Enter /sw/arch/RedHatEnterpriseServer7/EB_production/2019/software/Gaussian/g16.c01/l702.exe)
 L702 exits ... SP integral derivatives will be done elsewhere.
 Leave Link  702 at Tue Feb 23 00:11:11 2021, MaxMem=   104857600 cpu:               0.8 elap:               0.1
 (Enter /sw/arch/RedHatEnterpriseServer7/EB_production/2019/software/Gaussian/g16.c01/l703.exe)
 Integral derivatives from FoFJK, PRISM(SPDF).
 Compute integral first derivatives, UseDBF=F ICtDFT=           0.
 Calling FoFJK, ICntrl=      2527 FMM=F ISym2X=1 I1Cent= 0 IOpClX= 0 NMat=1 NMatS=1 NMatT=0.
 FoFJK:  IHMeth= 1 ICntrl=    2527 DoSepK=F KAlg= 0 I1Cent=           0 FoldK=F
 IRaf=         0 NMat=       1 IRICut=       1 DoRegI=T DoRafI=F ISym2E= 1 IDoP0=0 IntGTp=1.
 FoFCou: FMM=F IPFlag=           0 FMFlag=      100000 FMFlg1=         800
         NFxFlg=           0 DoJE=F BraDBF=F KetDBF=F FulRan=T
         wScrn=  0.000000 ICntrl=      2527 IOpCl=  0 I1Cent=           0 NGrid=           0
         NMat0=    1 NMatS0=      1 NMatT0=    0 NMatD0=    1 NMtDS0=    0 NMtDT0=    0
 Petite list used in FoFCou.
 Leave Link  703 at Tue Feb 23 00:11:12 2021, MaxMem=   104857600 cpu:               7.2 elap:               0.3
 (Enter /sw/arch/RedHatEnterpriseServer7/EB_production/2019/software/Gaussian/g16.c01/l716.exe)
 Dipole        = 2.38494295D-04-3.89905931D-05-1.81373381D-16
 ***** Axes restored to original set *****
 -------------------------------------------------------------------
 Center     Atomic                   Forces (Hartrees/Bohr)
 Number     Number              X              Y              Z
 -------------------------------------------------------------------
      1        7          -0.000380504    0.000198042    0.000000000
      2        1          -0.001610055   -0.002544041    0.004369234
      3        1          -0.001610055   -0.002544041   -0.004369234
      4        1          -0.001700781    0.004922333    0.000000000
      5        1           0.005301395   -0.000032293   -0.000000000
 -------------------------------------------------------------------
 Cartesian Forces:  Max     0.005301395 RMS     0.002729116
 Leave Link  716 at Tue Feb 23 00:11:12 2021, MaxMem=   104857600 cpu:               1.1 elap:               0.1
 (Enter /sw/arch/RedHatEnterpriseServer7/EB_production/2019/software/Gaussian/g16.c01/l103.exe)

 GradGradGradGradGradGradGradGradGradGradGradGradGradGradGradGradGradGrad
 Berny optimization.
 FormGI is forming the generalized inverse of G from B-inverse, IUseBI=4.
 Internal  Forces:  Max     0.005303422 RMS     0.002822497
 Search for a local minimum.
 Step number   1 out of a maximum of   24
 All quantities printed in internal units (Hartrees-Bohrs-Radians)
 RMS Force = .28225D-02 SwitMx=.10000D-02 MixMth= 1
 Mixed Optimization -- RFO/linear search
 Second derivative matrix not updated -- first step.
 The second derivative matrix:
                          R1        R2        R3        R4        A1
           R1           0.44020
           R2           0.00000   0.44020
           R3           0.00000   0.00000   0.44020
           R4           0.00000   0.00000   0.00000   0.44021
           A1           0.00000   0.00000   0.00000   0.00000   0.16000
           A2           0.00000   0.00000   0.00000   0.00000   0.00000
           A3           0.00000   0.00000   0.00000   0.00000   0.00000
           A4           0.00000   0.00000   0.00000   0.00000   0.00000
           A5           0.00000   0.00000   0.00000   0.00000   0.00000
           A6           0.00000   0.00000   0.00000   0.00000   0.00000
           D1           0.00000   0.00000   0.00000   0.00000   0.00000
           D2           0.00000   0.00000   0.00000   0.00000   0.00000
           D3           0.00000   0.00000   0.00000   0.00000   0.00000
           D4           0.00000   0.00000   0.00000   0.00000   0.00000
                          A2        A3        A4        A5        A6
           A2           0.16000
           A3           0.00000   0.16000
           A4           0.00000   0.00000   0.16000
           A5           0.00000   0.00000   0.00000   0.16000
           A6           0.00000   0.00000   0.00000   0.00000   0.16000
           D1           0.00000   0.00000   0.00000   0.00000   0.00000
           D2           0.00000   0.00000   0.00000   0.00000   0.00000
           D3           0.00000   0.00000   0.00000   0.00000   0.00000
           D4           0.00000   0.00000   0.00000   0.00000   0.00000
                          D1        D2        D3        D4
           D1           0.00737
           D2           0.00000   0.00737
           D3           0.00000   0.00000   0.00737
           D4           0.00000   0.00000   0.00000   0.00737
 ITU=  0
     Eigenvalues ---    0.05434   0.06046   0.08877   0.16000   0.16000
     Eigenvalues ---    0.44020   0.44020   0.44020   0.44021
 RFO step:  Lambda=-2.53691575D-04 EMin= 5.43353892D-02
 Linear search not attempted -- first point.
 Iteration  1 RMS(Cart)=  0.00642304 RMS(Int)=  0.00000431
 Iteration  2 RMS(Cart)=  0.00000294 RMS(Int)=  0.00000040
 Iteration  3 RMS(Cart)=  0.00000000 RMS(Int)=  0.00000040
 ITry= 1 IFail=0 DXMaxC= 1.18D-02 DCOld= 1.00D+10 DXMaxT= 3.00D-01 DXLimC= 3.00D+00 Rises=F
 ClnCor:  largest displacement from symmetrization is 1.20D-13 for atom     3.
 Variable       Old X    -DE/DX   Delta X   Delta X   Delta X     New X
                                 (Linear)    (Quad)   (Total)
    R1        1.93131   0.00530   0.00000   0.01204   0.01204   1.94335
    R2        1.93131   0.00530   0.00000   0.01204   0.01204   1.94335
    R3        1.93130   0.00521   0.00000   0.01182   0.01182   1.94312
    R4        1.93130   0.00530   0.00000   0.01204   0.01204   1.94334
    A1        1.91062   0.00005   0.00000   0.00064   0.00064   1.91127
    A2        1.91063   0.00007   0.00000   0.00075   0.00075   1.91138
    A3        1.91064  -0.00009   0.00000  -0.00100  -0.00100   1.90963
    A4        1.91063   0.00007   0.00000   0.00075   0.00075   1.91138
    A5        1.91064  -0.00009   0.00000  -0.00100  -0.00100   1.90963
    A6        1.91064   0.00000   0.00000  -0.00014  -0.00014   1.91050
    D1       -2.09439  -0.00014   0.00000  -0.00171  -0.00171  -2.09609
    D2        2.09439  -0.00005   0.00000  -0.00044  -0.00044   2.09395
    D3       -2.09440  -0.00002   0.00000  -0.00022  -0.00022  -2.09462
    D4        2.09440   0.00002   0.00000   0.00022   0.00022   2.09462
         Item               Value     Threshold  Converged?
 Maximum Force            0.005303     0.000450     NO 
 RMS     Force            0.002822     0.000300     NO 
 Maximum Displacement     0.011767     0.001800     NO 
 RMS     Displacement     0.006423     0.001200     NO 
 Predicted change in Energy=-1.269197D-04
 Lowest energy point so far.  Saving SCF results.
 GradGradGradGradGradGradGradGradGradGradGradGradGradGradGradGradGradGrad

 Leave Link  103 at Tue Feb 23 00:11:12 2021, MaxMem=   104857600 cpu:               5.3 elap:               0.2
 (Enter /sw/arch/RedHatEnterpriseServer7/EB_production/2019/software/Gaussian/g16.c01/l202.exe)
                          Input orientation:                          
 ---------------------------------------------------------------------
 Center     Atomic      Atomic             Coordinates (Angstroms)
 Number     Number       Type             X           Y           Z
 ---------------------------------------------------------------------
      1          7           0       -0.000422    0.000154    0.000000
      2          1           0       -0.342424   -0.484859    0.839853
      3          1           0       -0.342424   -0.484859   -0.839853
      4          1           0       -0.342686    0.969777    0.000000
      5          1           0        1.027947   -0.000224   -0.000000
 ---------------------------------------------------------------------
                    Distance matrix (angstroms):
                    1          2          3          4          5
     1  N    0.000000
     2  H    1.028375   0.000000
     3  H    1.028375   1.679706   0.000000
     4  H    1.028257   1.679678   1.679678   0.000000
     5  H    1.028369   1.678732   1.678732   1.679147   0.000000
 Stoichiometry    H4N(1+)
 Framework group  CS[SG(H2N),X(H2)]
 Deg. of freedom     6
 Full point group                 CS      NOp   2
 RotChk:  IX=3 Diff= 1.53D+00
 Largest Abelian subgroup         CS      NOp   2
 Largest concise Abelian subgroup CS      NOp   2
                         Standard orientation:                         
 ---------------------------------------------------------------------
 Center     Atomic      Atomic             Coordinates (Angstroms)
 Number     Number       Type             X           Y           Z
 ---------------------------------------------------------------------
      1          7           0       -0.000000   -0.000204    0.000000
      2          1           0        0.573779   -0.151798    0.839853
      3          1           0        0.573779   -0.151798   -0.839853
      4          1           0       -0.789626   -0.658842    0.000000
      5          1           0       -0.357932    0.963864   -0.000000
 ---------------------------------------------------------------------
 Rotational constants (GHZ):         177.8711092         177.8675476         177.7284001
 Leave Link  202 at Tue Feb 23 00:11:12 2021, MaxMem=   104857600 cpu:               1.2 elap:               0.1
 (Enter /sw/arch/RedHatEnterpriseServer7/EB_production/2019/software/Gaussian/g16.c01/l301.exe)
 Standard basis: TZVP (5D, 7F)
 Ernie: Thresh=  0.10000D-02 Tol=  0.10000D-05 Strict=F.
 There are    31 symmetry adapted cartesian basis functions of A'  symmetry.
 There are    13 symmetry adapted cartesian basis functions of A"  symmetry.
 There are    30 symmetry adapted basis functions of A'  symmetry.
 There are    13 symmetry adapted basis functions of A"  symmetry.
    43 basis functions,    67 primitive gaussians,    44 cartesian basis functions
     5 alpha electrons        5 beta electrons
       nuclear repulsion energy        16.2992921706 Hartrees.
 IExCor=  404 DFT=T Ex=B Corr=P86 ExCW=0 ScaHFX=  0.000000
 ScaDFX=  1.000000  1.000000  1.000000  1.000000 ScalE2=  1.000000  1.000000
 IRadAn=      5 IRanWt=     -1 IRanGd=            0 ICorTp=0 IEmpDi=131
 NAtoms=    5 NActive=    5 NUniq=    4 SFac= 1.56D+00 NAtFMM=   60 NAOKFM=F Big=F
 Integral buffers will be    131072 words long.
 Raffenetti 2 integral format.
 Two-electron integral symmetry is turned on.
 R6Disp:  Grimme-D3 Dispersion energy=       -0.0001058098 Hartrees.
 Nuclear repulsion after empirical dispersion term =       16.2991863607 Hartrees.
 ------------------------------------------------------------------------------
 Polarizable Continuum Model (PCM)
 =================================
 Model                : PCM.
 Atomic radii         : UFF (Universal Force Field).
 Polarization charges : Total charges.
 Charge compensation  : None.
 Solution method      : On-the-fly selection.
 Cavity type          : Scaled VdW (van der Waals Surface) (Alpha=1.100).
 Cavity algorithm     : GePol (No added spheres)
                        Default sphere list used, NSphG=    5.
                        Lebedev-Laikov grids with approx.  5.0 points / Ang**2.
                        Smoothing algorithm: York/Karplus (Gamma=1.0000).
                        Polarization charges: spherical gaussians, with
                                              point-specific exponents (IZeta= 3).
                        Self-potential: point-specific (ISelfS= 7).
                        Self-field    : sphere-specific E.n sum rule (ISelfD= 2).
 1st derivatives      : Analytical E(r).r(x)/FMM algorithm (CHGder, D1EAlg=3).
                        Cavity 1st derivative terms included.
 Solvent              : Water, Eps=  78.355300 Eps(inf)=   1.777849
 ------------------------------------------------------------------------------
 Spheres list:
 ISph  on   Nord     Re0    Alpha      Xe            Ye            Ze
    1   N      1    1.8300  1.100     -0.000000     -0.000204      0.000000
    2   H      2    1.4430  1.100      0.573779     -0.151798      0.839853
    3   H      3    1.4430  1.100      0.573779     -0.151798     -0.839853
    4   H      4    1.4430  1.100     -0.789626     -0.658842      0.000000
    5   H      5    1.4430  1.100     -0.357932      0.963864     -0.000000
 ------------------------------------------------------------------------------
 GePol: Number of generator spheres                  =       5
 GePol: Total number of spheres                      =       5
 GePol: Number of exposed spheres                    =       5 (100.00%)
 GePol: Number of points                             =     484
 GePol: Average weight of points                     =       0.14
 GePol: Minimum weight of points                     =   0.90D-05
 GePol: Maximum weight of points                     =    0.20212
 GePol: Number of points with low weight             =      20
 GePol: Fraction of low-weight points (<1% of avg)   =       4.13%
 GePol: Cavity surface area                          =     66.990 Ang**2
 GePol: Cavity volume                                =     47.863 Ang**3
 Leave Link  301 at Tue Feb 23 00:11:12 2021, MaxMem=   104857600 cpu:               1.7 elap:               0.1
 (Enter /sw/arch/RedHatEnterpriseServer7/EB_production/2019/software/Gaussian/g16.c01/l302.exe)
 NPDir=0 NMtPBC=     1 NCelOv=     1 NCel=       1 NClECP=     1 NCelD=      1
         NCelK=      1 NCelE2=     1 NClLst=     1 CellRange=     0.0.
 One-electron integrals computed using PRISM.
 One-electron integral symmetry used in STVInt
 PrsmSu:  requested number of processors reduced to:  30 ShMem   1 Linda.
 NBasis=    43 RedAO= T EigKep=  5.71D-03  NBF=    30    13
 NBsUse=    43 1.00D-06 EigRej= -1.00D+00 NBFU=    30    13
 Precomputing XC quadrature grid using
 IXCGrd= 4 IRadAn=           5 IRanWt=          -1 IRanGd=           0 AccXCQ= 0.00D+00.
 Generated NRdTot=       0 NPtTot=           0 NUsed=           0 NTot=          32
 NSgBfM=    44    44    44    44    44 MxSgAt=     5 MxSgA2=     5.
 Leave Link  302 at Tue Feb 23 00:11:12 2021, MaxMem=   104857600 cpu:               4.6 elap:               0.2
 (Enter /sw/arch/RedHatEnterpriseServer7/EB_production/2019/software/Gaussian/g16.c01/l303.exe)
 DipDrv:  MaxL=1.
 Leave Link  303 at Tue Feb 23 00:11:12 2021, MaxMem=   104857600 cpu:               0.7 elap:               0.0
 (Enter /sw/arch/RedHatEnterpriseServer7/EB_production/2019/software/Gaussian/g16.c01/l401.exe)
 Initial guess from the checkpoint file:  "QGZKDVFQNNGYKY-UHFFFAOYSA-O.chk"
 B after Tr=     0.000000    0.000000    0.000000
         Rot=    0.841560    0.000000    0.000000   -0.540164 Ang= -65.39 deg.
 Guess basis will be translated and rotated to current coordinates.
 JPrj=2 DoOrth=T DoCkMO=T.
 Initial guess orbital symmetries:
       Occupied  (A') (A') (A') (A") (A')
       Virtual   (A') (A') (A") (A') (A") (A') (A') (A') (A') (A")
                 (A') (A') (A') (A") (A") (A') (A") (A') (A") (A')
                 (A') (A') (A") (A') (A') (A") (A') (A') (A') (A")
                 (A') (A') (A") (A') (A") (A') (A') (A')
 The electronic state of the initial guess is 1-A'.
 Leave Link  401 at Tue Feb 23 00:11:12 2021, MaxMem=   104857600 cpu:               2.3 elap:               0.1
 (Enter /sw/arch/RedHatEnterpriseServer7/EB_production/2019/software/Gaussian/g16.c01/l502.exe)
 Keep J ints in memory in symmetry-blocked form, NReq=28243528.
 FoFCou: FMM=F IPFlag=           0 FMFlag=           0 FMFlg1=           0
         NFxFlg=           0 DoJE=F BraDBF=F KetDBF=F FulRan=T
         wScrn=  0.000000 ICntrl=       600 IOpCl=  0 I1Cent=           0 NGrid=           0
         NMat0=    1 NMatS0=    946 NMatT0=    0 NMatD0=    1 NMtDS0=    0 NMtDT0=    0
 Petite list used in FoFCou.
 Closed shell SCF:
 Using DIIS extrapolation, IDIIS=  1040.
 NGot=   104857600 LenX=   104617966 LenY=   104615589
 Requested convergence on RMS density matrix=1.00D-08 within 128 cycles.
 Requested convergence on MAX density matrix=1.00D-06.
 Requested convergence on             energy=1.00D-06.
 No special actions if energy rises.

 Cycle   1  Pass 1  IDiag  1:
 Inv3:  Mode=1 IEnd=      702768.
 Iteration    1 A*A^-1 deviation from unit magnitude is 2.89D-15 for    193.
 Iteration    1 A*A^-1 deviation from orthogonality  is 1.55D-15 for    456    204.
 Iteration    1 A^-1*A deviation from unit magnitude is 2.44D-15 for    193.
 Iteration    1 A^-1*A deviation from orthogonality  is 1.04D-15 for    370    163.
 E= -57.0376733297134    
 DIIS: error= 1.18D-03 at cycle   1 NSaved=   1.
 NSaved= 1 IEnMin= 1 EnMin= -57.0376733297134     IErMin= 1 ErrMin= 1.18D-03
 ErrMax= 1.18D-03  0.00D+00 EMaxC= 1.00D-01 BMatC= 4.32D-05 BMatP= 4.32D-05
 IDIUse=3 WtCom= 9.88D-01 WtEn= 1.18D-02
 Coeff-Com:  0.100D+01
 Coeff-En:   0.100D+01
 Coeff:      0.100D+01
 Gap=     0.518 Goal=   None    Shift=    0.000
 GapD=    0.518 DampG=2.000 DampE=1.000 DampFc=2.0000 IDamp=-1.
 RMSDP=1.30D-04 MaxDP=1.57D-03              OVMax= 2.93D-03

 Cycle   2  Pass 1  IDiag  1:
 E= -57.0376810143920     Delta-E=       -0.000007684679 Rises=F Damp=F
 DIIS: error= 1.08D-03 at cycle   2 NSaved=   2.
 NSaved= 2 IEnMin= 2 EnMin= -57.0376810143920     IErMin= 2 ErrMin= 1.08D-03
 ErrMax= 1.08D-03  0.00D+00 EMaxC= 1.00D-01 BMatC= 3.61D-05 BMatP= 4.32D-05
 IDIUse=3 WtCom= 9.89D-01 WtEn= 1.08D-02
 Coeff-Com:  0.471D+00 0.529D+00
 Coeff-En:   0.417D+00 0.583D+00
 Coeff:      0.471D+00 0.529D+00
 Gap=     0.519 Goal=   None    Shift=    0.000
 RMSDP=7.40D-05 MaxDP=9.48D-04 DE=-7.68D-06 OVMax= 1.92D-03

 Cycle   3  Pass 1  IDiag  1:
 E= -57.0377046789370     Delta-E=       -0.000023664545 Rises=F Damp=F
 DIIS: error= 3.74D-04 at cycle   3 NSaved=   3.
 NSaved= 3 IEnMin= 3 EnMin= -57.0377046789370     IErMin= 3 ErrMin= 3.74D-04
 ErrMax= 3.74D-04  0.00D+00 EMaxC= 1.00D-01 BMatC= 4.96D-06 BMatP= 3.61D-05
 IDIUse=3 WtCom= 9.96D-01 WtEn= 3.74D-03
 Coeff-Com:  0.278D-01 0.274D+00 0.698D+00
 Coeff-En:   0.000D+00 0.122D+00 0.878D+00
 Coeff:      0.277D-01 0.274D+00 0.699D+00
 Gap=     0.519 Goal=   None    Shift=    0.000
 RMSDP=2.07D-05 MaxDP=2.55D-04 DE=-2.37D-05 OVMax= 5.18D-04

 Cycle   4  Pass 1  IDiag  1:
 E= -57.0377084052646     Delta-E=       -0.000003726328 Rises=F Damp=F
 DIIS: error= 3.23D-06 at cycle   4 NSaved=   4.
 NSaved= 4 IEnMin= 4 EnMin= -57.0377084052646     IErMin= 4 ErrMin= 3.23D-06
 ErrMax= 3.23D-06  0.00D+00 EMaxC= 1.00D-01 BMatC= 2.70D-10 BMatP= 4.96D-06
 IDIUse=1 WtCom= 1.00D+00 WtEn= 0.00D+00
 Coeff-Com:  0.164D-04 0.120D-01 0.361D-01 0.952D+00
 Coeff:      0.164D-04 0.120D-01 0.361D-01 0.952D+00
 Gap=     0.519 Goal=   None    Shift=    0.000
 RMSDP=2.68D-07 MaxDP=2.57D-06 DE=-3.73D-06 OVMax= 6.62D-06

 Cycle   5  Pass 1  IDiag  1:
 E= -57.0377084083944     Delta-E=       -0.000000003130 Rises=F Damp=F
 DIIS: error= 1.32D-06 at cycle   5 NSaved=   5.
 NSaved= 5 IEnMin= 5 EnMin= -57.0377084083944     IErMin= 5 ErrMin= 1.32D-06
 ErrMax= 1.32D-06  0.00D+00 EMaxC= 1.00D-01 BMatC= 2.40D-11 BMatP= 2.70D-10
 IDIUse=1 WtCom= 1.00D+00 WtEn= 0.00D+00
 Coeff-Com: -0.151D-03 0.208D-02 0.760D-02 0.295D+00 0.696D+00
 Coeff:     -0.151D-03 0.208D-02 0.760D-02 0.295D+00 0.696D+00
 Gap=     0.519 Goal=   None    Shift=    0.000
 RMSDP=7.09D-08 MaxDP=7.85D-07 DE=-3.13D-09 OVMax= 2.07D-06

 Cycle   6  Pass 1  IDiag  1:
 E= -57.0377084084160     Delta-E=       -0.000000000022 Rises=F Damp=F
 DIIS: error= 1.13D-07 at cycle   6 NSaved=   6.
 NSaved= 6 IEnMin= 6 EnMin= -57.0377084084160     IErMin= 6 ErrMin= 1.13D-07
 ErrMax= 1.13D-07  0.00D+00 EMaxC= 1.00D-01 BMatC= 3.18D-13 BMatP= 2.40D-11
 IDIUse=1 WtCom= 1.00D+00 WtEn= 0.00D+00
 Coeff-Com: -0.943D-05-0.127D-03-0.687D-04 0.873D-03 0.483D-01 0.951D+00
 Coeff:     -0.943D-05-0.127D-03-0.687D-04 0.873D-03 0.483D-01 0.951D+00
 Gap=     0.519 Goal=   None    Shift=    0.000
 RMSDP=6.78D-09 MaxDP=6.42D-08 DE=-2.16D-11 OVMax= 1.65D-07

 Error on total polarization charges =  0.00006
 SCF Done:  E(RB-P86) =  -57.0377084084     A.U. after    6 cycles
            NFock=  6  Conv=0.68D-08     -V/T= 2.0069
 KE= 5.664734705221D+01 PE=-1.615212092534D+02 EE= 3.153696743206D+01
 Leave Link  502 at Tue Feb 23 00:11:13 2021, MaxMem=   104857600 cpu:              20.0 elap:               0.7
 (Enter /sw/arch/RedHatEnterpriseServer7/EB_production/2019/software/Gaussian/g16.c01/l701.exe)
 ... and contract with generalized density number  0.
 Compute integral first derivatives.
 R6Disp: Adding Grimme-D3 dispersion energy 1st derivatives to the gradient.
 PrsmSu:  requested number of processors reduced to:  30 ShMem   1 Linda.
 D1PCM: PCM CHGder 1st derivatives, ID1Alg=3 FixD1E=F DoIter=F DoCFld=F I1PDM=0.
 GePol: Maximum number of non-zero 1st derivatives   =     254
 CoulSu:  requested number of processors reduced to:  30 ShMem   1 Linda.
 CoulSu:  requested number of processors reduced to:  31 ShMem   1 Linda.
 Leave Link  701 at Tue Feb 23 00:11:14 2021, MaxMem=   104857600 cpu:              12.5 elap:               0.5
 (Enter /sw/arch/RedHatEnterpriseServer7/EB_production/2019/software/Gaussian/g16.c01/l702.exe)
 L702 exits ... SP integral derivatives will be done elsewhere.
 Leave Link  702 at Tue Feb 23 00:11:14 2021, MaxMem=   104857600 cpu:               0.6 elap:               0.0
 (Enter /sw/arch/RedHatEnterpriseServer7/EB_production/2019/software/Gaussian/g16.c01/l703.exe)
 Integral derivatives from FoFJK, PRISM(SPDF).
 Compute integral first derivatives, UseDBF=F ICtDFT=           0.
 Calling FoFJK, ICntrl=      2527 FMM=F ISym2X=1 I1Cent= 0 IOpClX= 0 NMat=1 NMatS=1 NMatT=0.
 FoFJK:  IHMeth= 1 ICntrl=    2527 DoSepK=F KAlg= 0 I1Cent=           0 FoldK=F
 IRaf=         0 NMat=       1 IRICut=       1 DoRegI=T DoRafI=F ISym2E= 1 IDoP0=0 IntGTp=1.
 FoFCou: FMM=F IPFlag=           0 FMFlag=      100000 FMFlg1=         800
         NFxFlg=           0 DoJE=F BraDBF=F KetDBF=F FulRan=T
         wScrn=  0.000000 ICntrl=      2527 IOpCl=  0 I1Cent=           0 NGrid=           0
         NMat0=    1 NMatS0=      1 NMatT0=    0 NMatD0=    1 NMtDS0=    0 NMtDT0=    0
 Petite list used in FoFCou.
 Leave Link  703 at Tue Feb 23 00:11:14 2021, MaxMem=   104857600 cpu:               4.9 elap:               0.2
 (Enter /sw/arch/RedHatEnterpriseServer7/EB_production/2019/software/Gaussian/g16.c01/l716.exe)
 Dipole        = 3.62908817D-04 8.62642075D-04-6.04639730D-16
 ***** Axes restored to original set *****
 -------------------------------------------------------------------
 Center     Atomic                   Forces (Hartrees/Bohr)
 Number     Number              X              Y              Z
 -------------------------------------------------------------------
      1        7           0.000522636    0.000014852   -0.000000000
      2        1          -0.000093351   -0.000021799    0.000018602
      3        1          -0.000093351   -0.000021799   -0.000018602
      4        1          -0.000377187    0.000033074    0.000000000
      5        1           0.000041254   -0.000004328   -0.000000000
 -------------------------------------------------------------------
 Cartesian Forces:  Max     0.000522636 RMS     0.000170787
 Leave Link  716 at Tue Feb 23 00:11:14 2021, MaxMem=   104857600 cpu:               1.1 elap:               0.1
 (Enter /sw/arch/RedHatEnterpriseServer7/EB_production/2019/software/Gaussian/g16.c01/l103.exe)

 GradGradGradGradGradGradGradGradGradGradGradGradGradGradGradGradGradGrad
 Berny optimization.
 Using GEDIIS/GDIIS optimizer.
 FormGI is forming the generalized inverse of G from B-inverse, IUseBI=4.
 Internal  Forces:  Max     0.000235340 RMS     0.000105221
 Search for a local minimum.
 Step number   2 out of a maximum of   24
 All quantities printed in internal units (Hartrees-Bohrs-Radians)
 RMS Force = .10522D-03 SwitMx=.10000D-02 MixMth= 2
 Mixed Optimization -- En-DIIS/RFO-DIIS
 Update second derivatives using D2CorX and points    1    2
 DE= -1.18D-04 DEPred=-1.27D-04 R= 9.26D-01
 TightC=F SS=  1.41D+00  RLast= 2.41D-02 DXNew= 5.0454D-01 7.2335D-02
 Trust test= 9.26D-01 RLast= 2.41D-02 DXMaxT set to 3.00D-01
 The second derivative matrix:
                          R1        R2        R3        R4        A1
           R1           0.43927
           R2          -0.00093   0.43927
           R3          -0.00304  -0.00304   0.43518
           R4          -0.00061  -0.00061  -0.00273   0.43991
           A1          -0.00087  -0.00087  -0.00088  -0.00086   0.15997
           A2           0.00165   0.00165   0.00154   0.00166  -0.00000
           A3           0.00099   0.00099   0.00102   0.00098   0.00004
           A4           0.00165   0.00165   0.00154   0.00166  -0.00000
           A5           0.00099   0.00099   0.00102   0.00098   0.00004
           A6          -0.00440  -0.00440  -0.00423  -0.00441  -0.00005
           D1          -0.00640  -0.00640  -0.00616  -0.00642  -0.00007
           D2          -0.00126  -0.00126  -0.00121  -0.00126  -0.00001
           D3          -0.00063  -0.00063  -0.00060  -0.00063  -0.00001
           D4           0.00063   0.00063   0.00060   0.00063   0.00001
                          A2        A3        A4        A5        A6
           A2           0.16010
           A3          -0.00001   0.15995
           A4           0.00010  -0.00001   0.16010
           A5          -0.00001  -0.00005  -0.00001   0.15995
           A6          -0.00017   0.00009  -0.00017   0.00009   0.16021
           D1          -0.00025   0.00014  -0.00025   0.00014   0.00029
           D2          -0.00005   0.00003  -0.00005   0.00003   0.00006
           D3          -0.00002   0.00001  -0.00002   0.00001   0.00003
           D4           0.00002  -0.00001   0.00002  -0.00001  -0.00003
                          D1        D2        D3        D4
           D1           0.00778
           D2           0.00008   0.00739
           D3           0.00004   0.00001   0.00738
           D4          -0.00004  -0.00001  -0.00000   0.00738
 ITU=  1  0
 Use linear search instead of GDIIS.
     Eigenvalues ---    0.05441   0.06051   0.08907   0.15980   0.16000
     Eigenvalues ---    0.43188   0.44020   0.44020   0.44204
 RFO step:  Lambda=-1.18793754D-06 EMin= 5.44050629D-02
 Quartic linear search produced a step of  0.01670.
 Iteration  1 RMS(Cart)=  0.00068923 RMS(Int)=  0.00000106
 Iteration  2 RMS(Cart)=  0.00000062 RMS(Int)=  0.00000082
 ITry= 1 IFail=0 DXMaxC= 1.50D-03 DCOld= 1.00D+10 DXMaxT= 3.00D-01 DXLimC= 3.00D+00 Rises=F
 ClnCor:  largest displacement from symmetrization is 4.03D-14 for atom     3.
 Variable       Old X    -DE/DX   Delta X   Delta X   Delta X     New X
                                 (Linear)    (Quad)   (Total)
    R1        1.94335   0.00006   0.00020   0.00004   0.00024   1.94358
    R2        1.94335   0.00006   0.00020   0.00004   0.00024   1.94358
    R3        1.94312   0.00016   0.00020   0.00027   0.00047   1.94359
    R4        1.94334   0.00004   0.00020   0.00000   0.00020   1.94354
    A1        1.91127  -0.00001   0.00001  -0.00074  -0.00073   1.91053
    A2        1.91138  -0.00013   0.00001  -0.00111  -0.00109   1.91029
    A3        1.90963   0.00002  -0.00002   0.00056   0.00054   1.91018
    A4        1.91138  -0.00013   0.00001  -0.00111  -0.00109   1.91029
    A5        1.90963   0.00002  -0.00002   0.00056   0.00054   1.91018
    A6        1.91050   0.00024  -0.00000   0.00184   0.00184   1.91234
    D1       -2.09609   0.00017  -0.00003   0.00227   0.00224  -2.09385
    D2        2.09395   0.00001  -0.00001  -0.00023  -0.00024   2.09371
    D3       -2.09462   0.00001  -0.00000  -0.00011  -0.00012  -2.09474
    D4        2.09462  -0.00001   0.00000   0.00011   0.00012   2.09474
         Item               Value     Threshold  Converged?
 Maximum Force            0.000235     0.000450     YES
 RMS     Force            0.000105     0.000300     YES
 Maximum Displacement     0.001496     0.001800     YES
 RMS     Displacement     0.000689     0.001200     YES
 Predicted change in Energy=-6.164212D-07
 Optimization completed.
    -- Stationary point found.
                           ----------------------------
                           !   Optimized Parameters   !
                           ! (Angstroms and Degrees)  !
 --------------------------                            --------------------------
 ! Name  Definition              Value          Derivative Info.                !
 --------------------------------------------------------------------------------
 ! R1    R(1,2)                  1.0284         -DE/DX =    0.0001              !
 ! R2    R(1,3)                  1.0284         -DE/DX =    0.0001              !
 ! R3    R(1,4)                  1.0283         -DE/DX =    0.0002              !
 ! R4    R(1,5)                  1.0284         -DE/DX =    0.0                 !
 ! A1    A(2,1,3)              109.5075         -DE/DX =    0.0                 !
 ! A2    A(2,1,4)              109.5142         -DE/DX =   -0.0001              !
 ! A3    A(2,1,5)              109.414          -DE/DX =    0.0                 !
 ! A4    A(3,1,4)              109.5142         -DE/DX =   -0.0001              !
 ! A5    A(3,1,5)              109.414          -DE/DX =    0.0                 !
 ! A6    A(4,1,5)              109.4634         -DE/DX =    0.0002              !
 ! D1    D(2,1,4,3)           -120.0972         -DE/DX =    0.0002              !
 ! D2    D(2,1,5,3)            119.9745         -DE/DX =    0.0                 !
 ! D3    D(2,1,5,4)           -120.0128         -DE/DX =    0.0                 !
 ! D4    D(3,1,5,4)            120.0128         -DE/DX =    0.0                 !
 --------------------------------------------------------------------------------
 Lowest energy point so far.  Saving SCF results.
 Largest change from initial coordinates is atom    4       1.107 Angstoms.
 GradGradGradGradGradGradGradGradGradGradGradGradGradGradGradGradGradGrad

 Leave Link  103 at Tue Feb 23 00:11:14 2021, MaxMem=   104857600 cpu:               5.3 elap:               0.2
 (Enter /sw/arch/RedHatEnterpriseServer7/EB_production/2019/software/Gaussian/g16.c01/l202.exe)
                          Input orientation:                          
 ---------------------------------------------------------------------
 Center     Atomic      Atomic             Coordinates (Angstroms)
 Number     Number       Type             X           Y           Z
 ---------------------------------------------------------------------
      1          7           0       -0.000422    0.000154    0.000000
      2          1           0       -0.342424   -0.484859    0.839853
      3          1           0       -0.342424   -0.484859   -0.839853
      4          1           0       -0.342686    0.969777    0.000000
      5          1           0        1.027947   -0.000224   -0.000000
 ---------------------------------------------------------------------
                    Distance matrix (angstroms):
                    1          2          3          4          5
     1  N    0.000000
     2  H    1.028375   0.000000
     3  H    1.028375   1.679706   0.000000
     4  H    1.028257   1.679678   1.679678   0.000000
     5  H    1.028369   1.678732   1.678732   1.679147   0.000000
 Stoichiometry    H4N(1+)
 Framework group  CS[SG(H2N),X(H2)]
 Deg. of freedom     6
 Full point group                 CS      NOp   2
 RotChk:  IX=3 Diff= 2.69D-09
 Largest Abelian subgroup         CS      NOp   2
 Largest concise Abelian subgroup CS      NOp   2
                         Standard orientation:                         
 ---------------------------------------------------------------------
 Center     Atomic      Atomic             Coordinates (Angstroms)
 Number     Number       Type             X           Y           Z
 ---------------------------------------------------------------------
      1          7           0       -0.000000   -0.000204    0.000000
      2          1           0        0.573779   -0.151798    0.839853
      3          1           0        0.573779   -0.151798   -0.839853
      4          1           0       -0.789626   -0.658842    0.000000
      5          1           0       -0.357932    0.963864   -0.000000
 ---------------------------------------------------------------------
 Rotational constants (GHZ):         177.8711092         177.8675476         177.7284001
 Leave Link  202 at Tue Feb 23 00:11:14 2021, MaxMem=   104857600 cpu:               0.4 elap:               0.0
 (Enter /sw/arch/RedHatEnterpriseServer7/EB_production/2019/software/Gaussian/g16.c01/l601.exe)
 Copying SCF densities to generalized density rwf, IOpCl= 0 IROHF=0.

 **********************************************************************

            Population analysis using the SCF Density.

 **********************************************************************

 Orbital symmetries:
       Occupied  (A') (A') (A') (A") (A')
       Virtual   (A') (A') (A') (A") (A') (A") (A') (A') (A') (A")
                 (A') (A') (A") (A') (A") (A') (A") (A') (A") (A')
                 (A') (A') (A") (A') (A') (A") (A') (A') (A') (A")
                 (A') (A') (A") (A') (A') (A") (A') (A')
 The electronic state is 1-A'.
 Alpha  occ. eigenvalues --  -14.13929  -0.93507  -0.54166  -0.54159  -0.54139
 Alpha virt. eigenvalues --   -0.02273   0.05287   0.05295   0.05295   0.21363
 Alpha virt. eigenvalues --    0.21374   0.21378   0.35735   0.41436   0.41439
 Alpha virt. eigenvalues --    0.41442   0.55392   0.95389   0.95404   1.41740
 Alpha virt. eigenvalues --    1.41773   1.41791   1.46981   1.46988   1.47013
 Alpha virt. eigenvalues --    1.78021   1.79490   1.79495   1.79499   2.26704
 Alpha virt. eigenvalues --    2.26847   2.26911   2.37910   2.38569   2.38574
 Alpha virt. eigenvalues --    2.38615   2.64194   2.64206   2.88670   3.70972
 Alpha virt. eigenvalues --    3.70980   3.71000  31.08101
          Condensed to atoms (all electrons):
               1          2          3          4          5
     1  N    5.924794   0.353171   0.353171   0.353226   0.353179
     2  H    0.353171   0.336838  -0.008140  -0.008152  -0.008174
     3  H    0.353171  -0.008140   0.336838  -0.008152  -0.008174
     4  H    0.353226  -0.008152  -0.008152   0.336898  -0.008186
     5  H    0.353179  -0.008174  -0.008174  -0.008186   0.337101
 Mulliken charges:
               1
     1  N   -0.337539
     2  H    0.334458
     3  H    0.334458
     4  H    0.334368
     5  H    0.334255
 Sum of Mulliken charges =   1.00000
 Mulliken charges with hydrogens summed into heavy atoms:
               1
     1  N    1.000000
 Electronic spatial extent (au):  <R**2>=             24.8212
 Charge=              1.0000 electrons
 Dipole moment (field-independent basis, Debye):
    X=              0.0009    Y=              0.0022    Z=             -0.0000  Tot=              0.0024
 Quadrupole moment (field-independent basis, Debye-Ang):
   XX=             -4.3558   YY=             -4.3582   ZZ=             -4.3539
   XY=              0.0029   XZ=             -0.0000   YZ=             -0.0000
 Traceless Quadrupole moment (field-independent basis, Debye-Ang):
   XX=              0.0001   YY=             -0.0022   ZZ=              0.0021
   XY=              0.0029   XZ=             -0.0000   YZ=             -0.0000
 Octapole moment (field-independent basis, Debye-Ang**2):
  XXX=             -0.3457  YYY=              1.3018  ZZZ=             -0.0000  XYY=             -1.4007
  XXY=             -0.8360  XXZ=             -0.0000  XZZ=              1.7487  YZZ=             -0.4619
  YYZ=              0.0000  XYZ=             -0.0000
 Hexadecapole moment (field-independent basis, Debye-Ang**3):
 XXXX=             -7.2510 YYYY=             -6.1415 ZZZZ=             -6.2908 XXXY=              0.5732
 XXXZ=             -0.0000 YYYX=             -0.2545 YYYZ=             -0.0000 ZZZX=             -0.0000
 ZZZY=             -0.0000 XXYY=             -1.9085 XXZZ=             -1.7551 YYZZ=             -2.8669
 XXYZ=             -0.0000 YYXZ=              0.0000 ZZXY=             -0.3164
 N-N= 1.629918636071D+01 E-N=-1.615212124478D+02  KE= 5.664734705221D+01
 Symmetry A'   KE= 5.375016035142D+01
 Symmetry A"   KE= 2.897186700782D+00
 No NMR shielding tensors so no spin-rotation constants.
 Leave Link  601 at Tue Feb 23 00:11:14 2021, MaxMem=   104857600 cpu:               2.5 elap:               0.1
 (Enter /sw/arch/RedHatEnterpriseServer7/EB_production/2019/software/Gaussian/g16.c01/l9999.exe)
 Unable to Open any file for archive entry.
 1\1\GINC-TCN1659\FOpt\RBP86\TZVP\H4N1(1+)\ELENAA\23-Feb-2021\0\\#P BP8
 6/TZVP EmpiricalDispersion=GD3 SCRF=(Solvent=Water) Opt\\Particle #QGZ
 KDVFQNNGYKY-UHFFFAOYSA-O\\1,1\N,-0.0004224985,0.0001542955,0.\H,-0.342
 4241651,-0.484858898,0.8398529892\H,-0.3424241656,-0.4848588975,-0.839
 8529892\H,-0.3426858192,0.9697770788,0.0000000004\H,1.027946648,-0.000
 2235782,-0.0000000003\\Version=ES64L-G16RevC.01\State=1-A'\HF=-57.0377
 084\RMSD=6.776e-09\RMSF=1.708e-04\Dipole=0.0006822,-0.0006407,0.\Quadr
 upole=-0.0028054,0.0012699,0.0015355,-0.0010483,0.,0.\PG=CS [SG(H2N1),
 X(H2)]\\@
 The archive entry for this job was punched.


 BLESSED ARE THOSE WHO NOUGHT EXPECT,
 FOR THEY SHALL NOT BE DISAPPOINTED..  WALCOT - ODE TO PITT
 Job cpu time:       0 days  0 hours  2 minutes 14.2 seconds.
 Elapsed time:       0 days  0 hours  0 minutes  5.4 seconds.
 File lengths (MBytes):  RWF=     11 Int=      0 D2E=      0 Chk=      2 Scr=      1
 Normal termination of Gaussian 16 at Tue Feb 23 00:11:15 2021.
 Initial command:
 /sw/arch/RedHatEnterpriseServer7/EB_production/2019/software/Gaussian/g16.c01/l1.exe "/scratch-local/elenaa.9715948/Gau-18721.inp" -scrdir="/scratch-local/elenaa.9715948/"
 Entering Link 1 = /sw/arch/RedHatEnterpriseServer7/EB_production/2019/software/Gaussian/g16.c01/l1.exe PID=     19638.
  
 Copyright (c) 1988-2019, Gaussian, Inc.  All Rights Reserved.
  
 This is part of the Gaussian(R) 16 program.  It is based on
 the Gaussian(R) 09 system (copyright 2009, Gaussian, Inc.),
 the Gaussian(R) 03 system (copyright 2003, Gaussian, Inc.),
 the Gaussian(R) 98 system (copyright 1998, Gaussian, Inc.),
 the Gaussian(R) 94 system (copyright 1995, Gaussian, Inc.),
 the Gaussian 92(TM) system (copyright 1992, Gaussian, Inc.),
 the Gaussian 90(TM) system (copyright 1990, Gaussian, Inc.),
 the Gaussian 88(TM) system (copyright 1988, Gaussian, Inc.),
 the Gaussian 86(TM) system (copyright 1986, Carnegie Mellon
 University), and the Gaussian 82(TM) system (copyright 1983,
 Carnegie Mellon University). Gaussian is a federally registered
 trademark of Gaussian, Inc.
  
 This software contains proprietary and confidential information,
 including trade secrets, belonging to Gaussian, Inc.
  
 This software is provided under written license and may be
 used, copied, transmitted, or stored only in accord with that
 written license.
  
 The following legend is applicable only to US Government
 contracts under FAR:
  
                    RESTRICTED RIGHTS LEGEND
  
 Use, reproduction and disclosure by the US Government is
 subject to restrictions as set forth in subparagraphs (a)
 and (c) of the Commercial Computer Software - Restricted
 Rights clause in FAR 52.227-19.
  
 Gaussian, Inc.
 340 Quinnipiac St., Bldg. 40, Wallingford CT 06492
  
  
 ---------------------------------------------------------------
 Warning -- This program may not be used in any manner that
 competes with the business of Gaussian, Inc. or will provide
 assistance to any competitor of Gaussian, Inc.  The licensee
 of this program is prohibited from giving any competitor of
 Gaussian, Inc. access to this program.  By using this program,
 the user acknowledges that Gaussian, Inc. is engaged in the
 business of creating and licensing software in the field of
 computational chemistry and represents and warrants to the
 licensee that it is not a competitor of Gaussian, Inc. and that
 it will not use this program in any manner prohibited above.
 ---------------------------------------------------------------
  

 Cite this work as:
 Gaussian 16, Revision C.01,
 M. J. Frisch, G. W. Trucks, H. B. Schlegel, G. E. Scuseria, 
 M. A. Robb, J. R. Cheeseman, G. Scalmani, V. Barone, 
 G. A. Petersson, H. Nakatsuji, X. Li, M. Caricato, A. V. Marenich, 
 J. Bloino, B. G. Janesko, R. Gomperts, B. Mennucci, H. P. Hratchian, 
 J. V. Ortiz, A. F. Izmaylov, J. L. Sonnenberg, D. Williams-Young, 
 F. Ding, F. Lipparini, F. Egidi, J. Goings, B. Peng, A. Petrone, 
 T. Henderson, D. Ranasinghe, V. G. Zakrzewski, J. Gao, N. Rega, 
 G. Zheng, W. Liang, M. Hada, M. Ehara, K. Toyota, R. Fukuda, 
 J. Hasegawa, M. Ishida, T. Nakajima, Y. Honda, O. Kitao, H. Nakai, 
 T. Vreven, K. Throssell, J. A. Montgomery, Jr., J. E. Peralta, 
 F. Ogliaro, M. J. Bearpark, J. J. Heyd, E. N. Brothers, K. N. Kudin, 
 V. N. Staroverov, T. A. Keith, R. Kobayashi, J. Normand, 
 K. Raghavachari, A. P. Rendell, J. C. Burant, S. S. Iyengar, 
 J. Tomasi, M. Cossi, J. M. Millam, M. Klene, C. Adamo, R. Cammi, 
 J. W. Ochterski, R. L. Martin, K. Morokuma, O. Farkas, 
 J. B. Foresman, and D. J. Fox, Gaussian, Inc., Wallingford CT, 2019.
 
 ******************************************
 Gaussian 16:  ES64L-G16RevC.01  3-Jul-2019
                23-Feb-2021 
 ******************************************
 %chk=QGZKDVFQNNGYKY-UHFFFAOYSA-O.chk
 %NProcShared=32
 Will use up to   32 processors via shared memory.
 ---------------------------------------------------------
 # BP86/TZVP SCRF=COSMORS geom=CHECKPOINT guess=CHECKPOINT
 ---------------------------------------------------------
 1/29=2,38=1,172=1/1;
 2/12=2,40=1/2;
 3/5=19,7=101,11=2,14=-4,25=1,30=1,70=12101,74=404,116=-2/1,2,3;
 4/5=1/1;
 5/5=2,38=6/2;
 6/7=2,8=2,9=2,10=2,28=1/1;
 99/5=1,9=1/99;
 -------------------------------------------
 COSMO-file for #QGZKDVFQNNGYKY-UHFFFAOYSA-O
 -------------------------------------------
 Structure from the checkpoint file:  "QGZKDVFQNNGYKY-UHFFFAOYSA-O.chk"
 Charge =  1 Multiplicity = 1
 Redundant internal coordinates found in file.  (old form).
 N,0,-0.0004224985,0.0001542955,0.
 H,0,-0.3424241651,-0.484858898,0.8398529892
 H,0,-0.3424241656,-0.4848588975,-0.8398529892
 H,0,-0.3426858192,0.9697770788,0.0000000004
 H,0,1.027946648,-0.0002235782,-0.0000000003
 Recover connectivity data from disk.
                           ----------------------------
                           !    Current Parameters    !
                           ! (Angstroms and Degrees)  !
 --------------------------                            --------------------------
 ! Name  Definition              Value                                          !
 --------------------------------------------------------------------------------
 ! R1    R(1,2)                  1.0284                                         !
 ! R2    R(1,3)                  1.0284                                         !
 ! R3    R(1,4)                  1.0283                                         !
 ! R4    R(1,5)                  1.0284                                         !
 ! A1    A(2,1,3)              109.5075                                         !
 ! A2    A(2,1,4)              109.5142                                         !
 ! A3    A(2,1,5)              109.414                                          !
 ! A4    A(3,1,4)              109.5142                                         !
 ! A5    A(3,1,5)              109.414                                          !
 ! A6    A(4,1,5)              109.4634                                         !
 ! D1    D(2,1,4,3)           -120.0972                                         !
 ! D2    D(2,1,5,3)            119.9745                                         !
 ! D3    D(2,1,5,4)           -120.0128                                         !
 ! D4    D(3,1,5,4)            120.0128                                         !
 --------------------------------------------------------------------------------
                          Input orientation:                          
 ---------------------------------------------------------------------
 Center     Atomic      Atomic             Coordinates (Angstroms)
 Number     Number       Type             X           Y           Z
 ---------------------------------------------------------------------
      1          7           0       -0.000422    0.000154    0.000000
      2          1           0       -0.342424   -0.484859    0.839853
      3          1           0       -0.342424   -0.484859   -0.839853
      4          1           0       -0.342686    0.969777    0.000000
      5          1           0        1.027947   -0.000224   -0.000000
 ---------------------------------------------------------------------
                    Distance matrix (angstroms):
                    1          2          3          4          5
     1  N    0.000000
     2  H    1.028375   0.000000
     3  H    1.028375   1.679706   0.000000
     4  H    1.028257   1.679678   1.679678   0.000000
     5  H    1.028369   1.678732   1.678732   1.679147   0.000000
 Stoichiometry    H4N(1+)
 Framework group  CS[SG(H2N),X(H2)]
 Deg. of freedom     6
 Full point group                 CS      NOp   2
 Largest Abelian subgroup         CS      NOp   2
 Largest concise Abelian subgroup CS      NOp   2
                         Standard orientation:                         
 ---------------------------------------------------------------------
 Center     Atomic      Atomic             Coordinates (Angstroms)
 Number     Number       Type             X           Y           Z
 ---------------------------------------------------------------------
      1          7           0        0.000000   -0.000204    0.000000
      2          1           0        0.573779   -0.151798    0.839853
      3          1           0        0.573779   -0.151798   -0.839853
      4          1           0       -0.789626   -0.658842    0.000000
      5          1           0       -0.357932    0.963864   -0.000000
 ---------------------------------------------------------------------
 Rotational constants (GHZ):         177.8711092         177.8675476         177.7284001
 Standard basis: TZVP (5D, 7F)
 There are    31 symmetry adapted cartesian basis functions of A'  symmetry.
 There are    13 symmetry adapted cartesian basis functions of A"  symmetry.
 There are    30 symmetry adapted basis functions of A'  symmetry.
 There are    13 symmetry adapted basis functions of A"  symmetry.
    43 basis functions,    67 primitive gaussians,    44 cartesian basis functions
     5 alpha electrons        5 beta electrons
       nuclear repulsion energy        16.2992921706 Hartrees.
 NAtoms=    5 NActive=    5 NUniq=    4 SFac= 1.56D+00 NAtFMM=   60 NAOKFM=F Big=F
 Integral buffers will be    131072 words long.
 Raffenetti 2 integral format.
 Two-electron integral symmetry is turned on.
 Warning! Using old PCM defaults because the COSMOthermo output has been requested.
 These settings can be overridden by following keywords.
 ------------------------------------------------------------------------------
 Polarizable Continuum Model (PCM)
 =================================
 Model                : C-PCM.
 Atomic radii         : Klamt.
 XCosmo               : -1.000 (infinite dielectric limit)
 Polarization charges : Electronic and nuclear charges.
 Charge compensation  : Type 3 (Electronic density weighted correction).
 Solution method      : On-the-fly selection.
 Cavity type          : VdW (van der Waals Surface) (Alpha=1.000).
 Cavity algorithm     : GePol (No added spheres)
                        Default sphere list used, NSphG=    5.
                        Tesserae with average area of 0.200 Ang**2.
                        Smoothing algorithm: None.
                        Polarization charges: point-like.
                        Self-potential: constant (ISelfS= 1).
                        Self-field    : global E.n sum rule (ISelfD= 3).
 Solvent              : Water, Eps=  78.355300 Eps(inf)=   1.777849
 ------------------------------------------------------------------------------
 Spheres list:
 ISph  on   Nord     Re0    Alpha      Xe            Ye            Ze
    1   N      1    1.8300  1.000      0.000000     -0.000204      0.000000
    2   H      2    1.3000  1.000      0.573779     -0.151798      0.839853
    3   H      3    1.3000  1.000      0.573779     -0.151798     -0.839853
    4   H      4    1.3000  1.000     -0.789626     -0.658842      0.000000
    5   H      5    1.3000  1.000     -0.357932      0.963864     -0.000000
 ------------------------------------------------------------------------------
 Using symmetry in molecular cavity generation.
 One-electron integrals computed using PRISM.
 PrsmSu:  requested number of processors reduced to:  30 ShMem   1 Linda.
 NBasis=    43 RedAO= T EigKep=  5.71D-03  NBF=    30    13
 NBsUse=    43 1.00D-06 EigRej= -1.00D+00 NBFU=    30    13
 Initial guess from the checkpoint file:  "QGZKDVFQNNGYKY-UHFFFAOYSA-O.chk"
 B after Tr=    -0.000000   -0.000000   -0.000000
         Rot=    1.000000    0.000000   -0.000000    0.000000 Ang=   0.00 deg.
 Initial guess orbital symmetries:
       Occupied  (A') (A') (A') (A") (A')
       Virtual   (A') (A') (A') (A") (A') (A") (A') (A') (A') (A")
                 (A') (A') (A") (A') (A") (A') (A") (A') (A") (A')
                 (A') (A') (A") (A') (A') (A") (A') (A') (A') (A")
                 (A') (A') (A") (A') (A') (A") (A') (A')
 Keep J ints in memory in symmetry-blocked form, NReq=28243528.
 Requested convergence on RMS density matrix=1.00D-08 within 128 cycles.
 Requested convergence on MAX density matrix=1.00D-06.
 Requested convergence on             energy=1.00D-06.
 No special actions if energy rises.
 Inv3:  Mode=1 IEnd=      433200.
 Iteration    1 A*A^-1 deviation from unit magnitude is 2.55D-15 for     75.
 Iteration    1 A*A^-1 deviation from orthogonality  is 2.22D-15 for    204     90.
 Iteration    1 A^-1*A deviation from unit magnitude is 2.55D-15 for     75.
 Iteration    1 A^-1*A deviation from orthogonality  is 9.99D-16 for    227     71.
 Rare condition: small coef for last iteration:  0.000D+00
 Error on nuclear    polarization charges =  0.00550
 Error on electronic polarization charges = -0.01174
 SCF Done:  E(RB-P86) =  -57.0547978427     A.U. after    6 cycles
            NFock=  6  Conv=0.91D-08     -V/T= 2.0073
 --------------------------------------------------------------------
 Variational C-PCM results
 =========================
 <psi(f)|   H    |psi(f)>                     (a.u.) =     -56.921684
 <psi(f)|H+V(f)/2|psi(f)>                     (a.u.) =     -57.054798
 Total free energy in solution:
 - with all non electrostatic terms           (a.u.) =     -57.051777
 --------------------------------------------------------------------
 (Polarized solute)-Solvent               (kcal/mol) =     -83.53
 --------------------------------------------------------------------
 Cavitation energy                        (kcal/mol) =       6.91
 Dispersion energy                        (kcal/mol) =      -5.69
 Repulsion energy                         (kcal/mol) =       0.67
 Total non electrostatic                  (kcal/mol) =       1.90
 --------------------------------------------------------------------
 Partition over spheres:
 Sphere  on Atom  Surface  Charge   GEl     GCav    GDR
    1      N1      18.66  -0.324  -27.46    2.26   -1.42
    2      H2       8.23  -0.169  -14.02    1.16   -0.90
    3      H3       8.23  -0.169  -14.02    1.16   -0.90
    4      H4       8.23  -0.169  -14.01    1.16   -0.90
    5      H5       8.23  -0.169  -14.03    1.16   -0.90
 --------------------------------------------------------------------
 - cavitation energy not included in the total energy.
 - dispersion energy not included in the total energy.
 - repulsion  energy not included in the total energy.
 After PCM corrections, the energy is  -57.0547978427     a.u.
 --------------------------------------------------------------------
 Writing COSMO formatted file "QGZKDVFQNNGYKY-UHFFFAOYSA-O.cosmo"
 Recomputed dielectric energy= -0.132284 old= -0.133114 diff= 8.30D-04

 **********************************************************************

            Population analysis using the SCF Density.

 **********************************************************************

 Orbital symmetries:
       Occupied  (A') (A') (A') (A") (A')
       Virtual   (A') (A') (A") (A') (A') (A') (A") (A') (A') (A")
                 (A') (A') (A") (A') (A") (A') (A") (A') (A") (A')
                 (A') (A') (A") (A') (A') (A") (A') (A') (A') (A")
                 (A') (A') (A") (A') (A') (A") (A') (A')
 The electronic state is 1-A'.
 Alpha  occ. eigenvalues --  -14.10640  -0.90207  -0.50863  -0.50858  -0.50838
 Alpha virt. eigenvalues --    0.00031   0.07788   0.07793   0.07797   0.23884
 Alpha virt. eigenvalues --    0.23895   0.23895   0.37763   0.43607   0.43610
 Alpha virt. eigenvalues --    0.43613   0.58141   0.98752   0.98766   1.45134
 Alpha virt. eigenvalues --    1.45169   1.45185   1.50033   1.50041   1.50065
 Alpha virt. eigenvalues --    1.81113   1.82603   1.82604   1.82611   2.29999
 Alpha virt. eigenvalues --    2.30143   2.30206   2.40937   2.41846   2.41847
 Alpha virt. eigenvalues --    2.41891   2.67531   2.67543   2.91920   3.74255
 Alpha virt. eigenvalues --    3.74262   3.74283  31.11374
          Condensed to atoms (all electrons):
               1          2          3          4          5
     1  N    5.931565   0.352874   0.352874   0.352896   0.352870
     2  H    0.352874   0.337327  -0.008655  -0.008651  -0.008677
     3  H    0.352874  -0.008655   0.337327  -0.008651  -0.008677
     4  H    0.352896  -0.008651  -0.008651   0.337233  -0.008670
     5  H    0.352870  -0.008677  -0.008677  -0.008670   0.337483
 Mulliken charges:
               1
     1  N   -0.343077
     2  H    0.335782
     3  H    0.335782
     4  H    0.335842
     5  H    0.335671
 Sum of Mulliken charges =   1.00000
 Mulliken charges with hydrogens summed into heavy atoms:
               1
     1  N    1.000000
 Electronic spatial extent (au):  <R**2>=             24.8645
 Charge=              1.0000 electrons
 Dipole moment (field-independent basis, Debye):
    X=              0.0001    Y=              0.0024    Z=              0.0000  Tot=              0.0024
 Quadrupole moment (field-independent basis, Debye-Ang):
   XX=             -4.3752   YY=             -4.3775   ZZ=             -4.3735
   XY=              0.0030   XZ=              0.0000   YZ=              0.0000
 Traceless Quadrupole moment (field-independent basis, Debye-Ang):
   XX=              0.0002   YY=             -0.0021   ZZ=              0.0019
   XY=              0.0030   XZ=              0.0000   YZ=              0.0000
 Octapole moment (field-independent basis, Debye-Ang**2):
  XXX=             -0.3470  YYY=              1.3029  ZZZ=             -0.0000  XYY=             -1.4020
  XXY=             -0.8367  XXZ=              0.0000  XZZ=              1.7493  YZZ=             -0.4621
  YYZ=             -0.0000  XYZ=              0.0000
 Hexadecapole moment (field-independent basis, Debye-Ang**3):
 XXXX=             -7.3311 YYYY=             -6.2214 ZZZZ=             -6.3714 XXXY=              0.5736
 XXXZ=             -0.0000 YYYX=             -0.2544 YYYZ=             -0.0000 ZZZX=              0.0000
 ZZZY=              0.0000 XXYY=             -1.9351 XXZZ=             -1.7818 YYZZ=             -2.8940
 XXYZ=              0.0000 YYXZ=             -0.0000 ZZXY=             -0.3164
 N-N= 1.629929217055D+01 E-N=-1.615094573541D+02  KE= 5.664239040521D+01
 Symmetry A'   KE= 5.374701445131D+01
 Symmetry A"   KE= 2.895375953908D+00
 Unable to Open any file for archive entry.
 1\1\GINC-TCN1659\SP\RBP86\TZVP\H4N1(1+)\ELENAA\23-Feb-2021\0\\# BP86/T
 ZVP SCRF=COSMORS geom=CHECKPOINT guess=CHECKPOINT\\COSMO-file for #QGZ
 KDVFQNNGYKY-UHFFFAOYSA-O\\1,1\N,0,-0.0004224985,0.0001542955,0.\H,0,-0
 .3424241651,-0.484858898,0.8398529892\H,0,-0.3424241656,-0.4848588975,
 -0.8398529892\H,0,-0.3426858192,0.9697770788,0.0000000004\H,0,1.027946
 648,-0.0002235782,-0.0000000003\\Version=ES64L-G16RevC.01\State=1-A'\H
 F=-57.0547978\RMSD=9.057e-09\Dipole=0.0008757,-0.000356,0.\Quadrupole=
 -0.0028279,0.0014316,0.0013963,-0.0011297,0.,0.\PG=CS [SG(H2N1),X(H2)]
 \\@
 The archive entry for this job was punched.


 A politician is a person who can make waves and then
 make you think he's the only one who can save the ship.
 -- Ivern Ball
 Job cpu time:       0 days  0 hours  0 minutes 36.3 seconds.
 Elapsed time:       0 days  0 hours  0 minutes  1.4 seconds.
 File lengths (MBytes):  RWF=      6 Int=      0 D2E=      0 Chk=      2 Scr=      1
 Normal termination of Gaussian 16 at Tue Feb 23 00:11:16 2021.
