 Entering Gaussian System, Link 0=g16
 Input=QIGBRXMKCJKVMJ-UHFFFAOYSA-N.gjf
 Output=QIGBRXMKCJKVMJ-UHFFFAOYSA-N.log
 Initial command:
 /sw/arch/RedHatEnterpriseServer7/EB_production/2019/software/Gaussian/g16.c01/l1.exe "/scratch-local/elenaa.9715263/Gau-11083.inp" -scrdir="/scratch-local/elenaa.9715263/"
 Entering Link 1 = /sw/arch/RedHatEnterpriseServer7/EB_production/2019/software/Gaussian/g16.c01/l1.exe PID=     11084.
  
 Copyright (c) 1988-2019, Gaussian, Inc.  All Rights Reserved.
  
 This is part of the Gaussian(R) 16 program.  It is based on
 the Gaussian(R) 09 system (copyright 2009, Gaussian, Inc.),
 the Gaussian(R) 03 system (copyright 2003, Gaussian, Inc.),
 the Gaussian(R) 98 system (copyright 1998, Gaussian, Inc.),
 the Gaussian(R) 94 system (copyright 1995, Gaussian, Inc.),
 the Gaussian 92(TM) system (copyright 1992, Gaussian, Inc.),
 the Gaussian 90(TM) system (copyright 1990, Gaussian, Inc.),
 the Gaussian 88(TM) system (copyright 1988, Gaussian, Inc.),
 the Gaussian 86(TM) system (copyright 1986, Carnegie Mellon
 University), and the Gaussian 82(TM) system (copyright 1983,
 Carnegie Mellon University). Gaussian is a federally registered
 trademark of Gaussian, Inc.
  
 This software contains proprietary and confidential information,
 including trade secrets, belonging to Gaussian, Inc.
  
 This software is provided under written license and may be
 used, copied, transmitted, or stored only in accord with that
 written license.
  
 The following legend is applicable only to US Government
 contracts under FAR:
  
                    RESTRICTED RIGHTS LEGEND
  
 Use, reproduction and disclosure by the US Government is
 subject to restrictions as set forth in subparagraphs (a)
 and (c) of the Commercial Computer Software - Restricted
 Rights clause in FAR 52.227-19.
  
 Gaussian, Inc.
 340 Quinnipiac St., Bldg. 40, Wallingford CT 06492
  
  
 ---------------------------------------------------------------
 Warning -- This program may not be used in any manner that
 competes with the business of Gaussian, Inc. or will provide
 assistance to any competitor of Gaussian, Inc.  The licensee
 of this program is prohibited from giving any competitor of
 Gaussian, Inc. access to this program.  By using this program,
 the user acknowledges that Gaussian, Inc. is engaged in the
 business of creating and licensing software in the field of
 computational chemistry and represents and warrants to the
 licensee that it is not a competitor of Gaussian, Inc. and that
 it will not use this program in any manner prohibited above.
 ---------------------------------------------------------------
  

 Cite this work as:
 Gaussian 16, Revision C.01,
 M. J. Frisch, G. W. Trucks, H. B. Schlegel, G. E. Scuseria, 
 M. A. Robb, J. R. Cheeseman, G. Scalmani, V. Barone, 
 G. A. Petersson, H. Nakatsuji, X. Li, M. Caricato, A. V. Marenich, 
 J. Bloino, B. G. Janesko, R. Gomperts, B. Mennucci, H. P. Hratchian, 
 J. V. Ortiz, A. F. Izmaylov, J. L. Sonnenberg, D. Williams-Young, 
 F. Ding, F. Lipparini, F. Egidi, J. Goings, B. Peng, A. Petrone, 
 T. Henderson, D. Ranasinghe, V. G. Zakrzewski, J. Gao, N. Rega, 
 G. Zheng, W. Liang, M. Hada, M. Ehara, K. Toyota, R. Fukuda, 
 J. Hasegawa, M. Ishida, T. Nakajima, Y. Honda, O. Kitao, H. Nakai, 
 T. Vreven, K. Throssell, J. A. Montgomery, Jr., J. E. Peralta, 
 F. Ogliaro, M. J. Bearpark, J. J. Heyd, E. N. Brothers, K. N. Kudin, 
 V. N. Staroverov, T. A. Keith, R. Kobayashi, J. Normand, 
 K. Raghavachari, A. P. Rendell, J. C. Burant, S. S. Iyengar, 
 J. Tomasi, M. Cossi, J. M. Millam, M. Klene, C. Adamo, R. Cammi, 
 J. W. Ochterski, R. L. Martin, K. Morokuma, O. Farkas, 
 J. B. Foresman, and D. J. Fox, Gaussian, Inc., Wallingford CT, 2019.
 
 ******************************************
 Gaussian 16:  ES64L-G16RevC.01  3-Jul-2019
                22-Feb-2021 
 ******************************************
 %chk=QIGBRXMKCJKVMJ-UHFFFAOYSA-N.chk
 %NProcShared=32
 Will use up to   32 processors via shared memory.
 -------------------------------------------------------------
 #P BP86/TZVP EmpiricalDispersion=GD3 SCRF=(Solvent=Water) Opt
 -------------------------------------------------------------
 1/18=20,19=15,26=3,38=1/1,3;
 2/9=110,12=2,17=6,18=5,40=1/2;
 3/5=19,7=101,11=2,25=1,30=1,70=2201,71=1,72=1,74=404,124=31/1,2,3;
 4//1;
 5/5=2,38=5,53=1/2;
 6/7=2,8=2,9=2,10=2,28=1/1;
 7//1,2,3,16;
 1/18=20,19=15,26=3/3(2);
 2/9=110/2;
 99//99;
 2/9=110/2;
 3/5=19,7=101,11=2,25=1,30=1,70=2205,71=1,72=1,74=404,124=31/1,2,3;
 4/5=5,16=3,69=1/1;
 5/5=2,38=5,53=1/2;
 7//1,2,3,16;
 1/18=20,19=15,26=3/3(-5);
 2/9=110/2;
 6/7=2,8=2,9=2,10=2,19=2,28=1/1;
 99/9=1/99;
 Leave Link    1 at Mon Feb 22 21:17:46 2021, MaxMem=           0 cpu:               2.2 elap:               0.1
 (Enter /sw/arch/RedHatEnterpriseServer7/EB_production/2019/software/Gaussian/g16.c01/l101.exe)
 -------------------------------------
 Particle #QIGBRXMKCJKVMJ-UHFFFAOYSA-N
 -------------------------------------
 Symbolic Z-matrix:
 Charge =  0 Multiplicity = 1
 O                     0.93499  -0.49558  -0.12441 
 C                     0.65194   0.62002   0.59477 
 C                     0.1534    1.76168  -0.0627 
 C                    -0.1455    2.92795   0.66917 
 C                     0.0521    2.96048   2.06348 
 O                    -0.24063   4.09151   2.75411 
 C                     0.5508    1.81834   2.72089 
 C                     0.84951   0.65283   1.9895 
 H                     1.26328  -1.15641   0.52112 
 H                     0.00709   1.74626  -1.07483 
 H                    -0.50713   3.75264   0.18423 
 H                    -0.03171   3.89643   3.69192 
 H                     0.69699   1.834     3.73275 
 H                     1.21105  -0.17177   2.47407 
 
 ITRead=  0  0  0  0  0  0  0  0  0  0  0  0  0  0
 MicOpt= -1 -1 -1 -1 -1 -1 -1 -1 -1 -1 -1 -1 -1 -1
 NAtoms=     14 NQM=       14 NQMF=       0 NMMI=      0 NMMIF=      0
                NMic=       0 NMicF=      0.
                    Isotopes and Nuclear Properties:
 (Nuclear quadrupole moments (NQMom) in fm**2, nuclear magnetic moments (NMagM)
  in nuclear magnetons)

  Atom         1           2           3           4           5           6           7           8           9          10
 IAtWgt=          16          12          12          12          12          16          12          12           1           1
 AtmWgt=  15.9949146  12.0000000  12.0000000  12.0000000  12.0000000  15.9949146  12.0000000  12.0000000   1.0078250   1.0078250
 NucSpn=           0           0           0           0           0           0           0           0           1           1
 AtZEff=  -0.0000000  -0.0000000  -0.0000000  -0.0000000  -0.0000000  -0.0000000  -0.0000000  -0.0000000  -0.0000000  -0.0000000
 NQMom=    0.0000000   0.0000000   0.0000000   0.0000000   0.0000000   0.0000000   0.0000000   0.0000000   0.0000000   0.0000000
 NMagM=    0.0000000   0.0000000   0.0000000   0.0000000   0.0000000   0.0000000   0.0000000   0.0000000   2.7928460   2.7928460
 AtZNuc=   8.0000000   6.0000000   6.0000000   6.0000000   6.0000000   8.0000000   6.0000000   6.0000000   1.0000000   1.0000000

  Atom        11          12          13          14
 IAtWgt=           1           1           1           1
 AtmWgt=   1.0078250   1.0078250   1.0078250   1.0078250
 NucSpn=           1           1           1           1
 AtZEff=  -0.0000000  -0.0000000  -0.0000000  -0.0000000
 NQMom=    0.0000000   0.0000000   0.0000000   0.0000000
 NMagM=    2.7928460   2.7928460   2.7928460   2.7928460
 AtZNuc=   1.0000000   1.0000000   1.0000000   1.0000000
 Leave Link  101 at Mon Feb 22 21:17:46 2021, MaxMem=   104857600 cpu:               2.5 elap:               0.1
 (Enter /sw/arch/RedHatEnterpriseServer7/EB_production/2019/software/Gaussian/g16.c01/l103.exe)

 GradGradGradGradGradGradGradGradGradGradGradGradGradGradGradGradGradGrad
 Berny optimization.
 Initialization pass.
                           ----------------------------
                           !    Initial Parameters    !
                           ! (Angstroms and Degrees)  !
 --------------------------                            --------------------------
 ! Name  Definition              Value          Derivative Info.                !
 --------------------------------------------------------------------------------
 ! R1    R(1,2)                  1.3572         estimate D2E/DX2                !
 ! R2    R(1,9)                  0.9804         estimate D2E/DX2                !
 ! R3    R(2,3)                  1.4086         estimate D2E/DX2                !
 ! R4    R(2,8)                  1.409          estimate D2E/DX2                !
 ! R5    R(3,4)                  1.409          estimate D2E/DX2                !
 ! R6    R(3,10)                 1.0228         estimate D2E/DX2                !
 ! R7    R(4,5)                  1.4086         estimate D2E/DX2                !
 ! R8    R(4,11)                 1.0228         estimate D2E/DX2                !
 ! R9    R(5,6)                  1.3572         estimate D2E/DX2                !
 ! R10   R(5,7)                  1.409          estimate D2E/DX2                !
 ! R11   R(6,12)                 0.9804         estimate D2E/DX2                !
 ! R12   R(7,8)                  1.408          estimate D2E/DX2                !
 ! R13   R(7,13)                 1.0225         estimate D2E/DX2                !
 ! R14   R(8,14)                 1.0225         estimate D2E/DX2                !
 ! A1    A(2,1,9)              105.9615         estimate D2E/DX2                !
 ! A2    A(1,2,3)              119.5182         estimate D2E/DX2                !
 ! A3    A(1,2,8)              120.9594         estimate D2E/DX2                !
 ! A4    A(3,2,8)              119.5224         estimate D2E/DX2                !
 ! A5    A(2,3,4)              120.2328         estimate D2E/DX2                !
 ! A6    A(2,3,10)             120.0202         estimate D2E/DX2                !
 ! A7    A(4,3,10)             119.747          estimate D2E/DX2                !
 ! A8    A(3,4,5)              120.2332         estimate D2E/DX2                !
 ! A9    A(3,4,11)             119.7465         estimate D2E/DX2                !
 ! A10   A(5,4,11)             120.0203         estimate D2E/DX2                !
 ! A11   A(4,5,6)              119.518          estimate D2E/DX2                !
 ! A12   A(4,5,7)              119.5221         estimate D2E/DX2                !
 ! A13   A(6,5,7)              120.9599         estimate D2E/DX2                !
 ! A14   A(5,6,12)             105.9609         estimate D2E/DX2                !
 ! A15   A(5,7,8)              120.2448         estimate D2E/DX2                !
 ! A16   A(5,7,13)             119.9939         estimate D2E/DX2                !
 ! A17   A(8,7,13)             119.7612         estimate D2E/DX2                !
 ! A18   A(2,8,7)              120.2446         estimate D2E/DX2                !
 ! A19   A(2,8,14)             119.9934         estimate D2E/DX2                !
 ! A20   A(7,8,14)             119.7619         estimate D2E/DX2                !
 ! D1    D(9,1,2,3)            180.0            estimate D2E/DX2                !
 ! D2    D(9,1,2,8)             -0.0002         estimate D2E/DX2                !
 ! D3    D(1,2,3,4)           -180.0            estimate D2E/DX2                !
 ! D4    D(1,2,3,10)            -0.0003         estimate D2E/DX2                !
 ! D5    D(8,2,3,4)              0.0002         estimate D2E/DX2                !
 ! D6    D(8,2,3,10)           179.9999         estimate D2E/DX2                !
 ! D7    D(1,2,8,7)           -179.9998         estimate D2E/DX2                !
 ! D8    D(1,2,8,14)             0.0003         estimate D2E/DX2                !
 ! D9    D(3,2,8,7)              0.0            estimate D2E/DX2                !
 ! D10   D(3,2,8,14)          -179.9999         estimate D2E/DX2                !
 ! D11   D(2,3,4,5)             -0.0004         estimate D2E/DX2                !
 ! D12   D(2,3,4,11)          -179.9998         estimate D2E/DX2                !
 ! D13   D(10,3,4,5)           179.9999         estimate D2E/DX2                !
 ! D14   D(10,3,4,11)            0.0006         estimate D2E/DX2                !
 ! D15   D(3,4,5,6)            179.9998         estimate D2E/DX2                !
 ! D16   D(3,4,5,7)              0.0005         estimate D2E/DX2                !
 ! D17   D(11,4,5,6)            -0.0009         estimate D2E/DX2                !
 ! D18   D(11,4,5,7)           179.9998         estimate D2E/DX2                !
 ! D19   D(4,5,6,12)          -179.9998         estimate D2E/DX2                !
 ! D20   D(7,5,6,12)            -0.0005         estimate D2E/DX2                !
 ! D21   D(4,5,7,8)             -0.0003         estimate D2E/DX2                !
 ! D22   D(4,5,7,13)           179.9996         estimate D2E/DX2                !
 ! D23   D(6,5,7,8)           -179.9996         estimate D2E/DX2                !
 ! D24   D(6,5,7,13)             0.0004         estimate D2E/DX2                !
 ! D25   D(5,7,8,2)              0.0001         estimate D2E/DX2                !
 ! D26   D(5,7,8,14)           180.0            estimate D2E/DX2                !
 ! D27   D(13,7,8,2)          -179.9999         estimate D2E/DX2                !
 ! D28   D(13,7,8,14)            0.0            estimate D2E/DX2                !
 --------------------------------------------------------------------------------
 Trust Radius=3.00D-01 FncErr=1.00D-07 GrdErr=1.00D-06 EigMax=2.50D+02 EigMin=1.00D-04
 Number of steps in this run=     72 maximum allowed number of steps=    100.
 GradGradGradGradGradGradGradGradGradGradGradGradGradGradGradGradGradGrad

 Leave Link  103 at Mon Feb 22 21:17:46 2021, MaxMem=   104857600 cpu:               0.3 elap:               0.0
 (Enter /sw/arch/RedHatEnterpriseServer7/EB_production/2019/software/Gaussian/g16.c01/l202.exe)
                          Input orientation:                          
 ---------------------------------------------------------------------
 Center     Atomic      Atomic             Coordinates (Angstroms)
 Number     Number       Type             X           Y           Z
 ---------------------------------------------------------------------
      1          8           0        0.934990   -0.495580   -0.124410
      2          6           0        0.651940    0.620020    0.594770
      3          6           0        0.153400    1.761680   -0.062700
      4          6           0       -0.145500    2.927950    0.669170
      5          6           0        0.052100    2.960480    2.063480
      6          8           0       -0.240630    4.091510    2.754110
      7          6           0        0.550800    1.818340    2.720890
      8          6           0        0.849510    0.652830    1.989500
      9          1           0        1.263280   -1.156410    0.521120
     10          1           0        0.007090    1.746260   -1.074830
     11          1           0       -0.507130    3.752640    0.184230
     12          1           0       -0.031710    3.896430    3.691920
     13          1           0        0.696990    1.834000    3.732750
     14          1           0        1.211050   -0.171770    2.474070
 ---------------------------------------------------------------------
                    Distance matrix (angstroms):
                    1          2          3          4          5
     1  O    0.000000
     2  C    1.357166   0.000000
     3  C    2.389543   1.408615   0.000000
     4  C    3.676654   2.442946   1.408957   0.000000
     5  C    4.184580   2.827485   2.442954   1.408618   0.000000
     6  O    5.541602   4.184576   3.676654   2.389539   1.357162
     7  C    3.687487   2.442660   2.812385   2.434260   1.409033
     8  C    2.407232   1.409036   2.434264   2.812381   2.442659
     9  H    0.980398   1.880124   3.176150   4.323029   4.560111
    10  H    2.605790   2.114666   1.022767   2.112158   3.365315
    11  H    4.496926   3.365307   2.112154   1.022769   2.114672
    12  H    5.898189   4.560107   4.323031   3.176148   1.880118
    13  H    4.512346   3.364921   3.834861   3.360363   2.114545
    14  H    2.633090   2.114546   3.360365   3.834861   3.364928
                    6          7          8          9         10
     6  O    0.000000
     7  C    2.407232   0.000000
     8  C    3.687486   1.408039   0.000000
     9  H    5.898191   3.767725   2.366579   0.000000
    10  H    4.496926   3.835141   3.360860   3.542677   0.000000
    11  H    2.605789   3.360859   3.835139   5.229399   2.423884
    12  H    0.980404   2.366575   3.767721   6.104274   5.229402
    13  H    2.633101   1.022486   2.111243   4.424681   4.857621
    14  H    4.512356   2.111253   1.022489   2.187752   4.209875
                   11         12         13         14
    11  H    0.000000
    12  H    3.542681   0.000000
    13  H    4.209879   2.187759   0.000000
    14  H    4.857623   4.424688   2.423148   0.000000
 Stoichiometry    C6H6O2
 Framework group  C1[X(C6H6O2)]
 Deg. of freedom    36
 Full point group                 C1      NOp   1
 Largest Abelian subgroup         C1      NOp   1
 Largest concise Abelian subgroup C1      NOp   1
                         Standard orientation:                         
 ---------------------------------------------------------------------
 Center     Atomic      Atomic             Coordinates (Angstroms)
 Number     Number       Type             X           Y           Z
 ---------------------------------------------------------------------
      1          8           0        2.770801    0.044101   -0.000000
      2          6           0        1.413741    0.027172    0.000001
      3          6           0        0.704479    1.244194   -0.000001
      4          6           0       -0.704478    1.244190    0.000001
      5          6           0       -1.413744    0.027167   -0.000004
      6          8           0       -2.770801    0.044104    0.000003
      7          6           0       -0.704020   -1.190070   -0.000002
      8          6           0        0.704019   -1.190070    0.000001
      9          1           0        3.052138   -0.895063    0.000002
     10          1           0        1.211944    2.132187    0.000002
     11          1           0       -1.211941    2.132187   -0.000004
     12          1           0       -3.052136   -0.895067    0.000001
     13          1           0       -1.211568   -2.077691   -0.000000
     14          1           0        1.211580   -2.077688    0.000003
 ---------------------------------------------------------------------
 Rotational constants (GHZ):           5.5733999           1.4774251           1.1678464
 Leave Link  202 at Mon Feb 22 21:17:47 2021, MaxMem=   104857600 cpu:               0.5 elap:               0.0
 (Enter /sw/arch/RedHatEnterpriseServer7/EB_production/2019/software/Gaussian/g16.c01/l301.exe)
 Standard basis: TZVP (5D, 7F)
 Ernie: Thresh=  0.10000D-02 Tol=  0.10000D-05 Strict=F.
 There are   196 symmetry adapted cartesian basis functions of A   symmetry.
 There are   188 symmetry adapted basis functions of A   symmetry.
   188 basis functions,   328 primitive gaussians,   196 cartesian basis functions
    29 alpha electrons       29 beta electrons
       nuclear repulsion energy       344.3343732412 Hartrees.
 IExCor=  404 DFT=T Ex=B Corr=P86 ExCW=0 ScaHFX=  0.000000
 ScaDFX=  1.000000  1.000000  1.000000  1.000000 ScalE2=  1.000000  1.000000
 IRadAn=      5 IRanWt=     -1 IRanGd=            0 ICorTp=0 IEmpDi=131
 NAtoms=   14 NActive=   14 NUniq=   14 SFac= 1.00D+00 NAtFMM=   60 NAOKFM=F Big=F
 Integral buffers will be    131072 words long.
 Raffenetti 2 integral format.
 Two-electron integral symmetry is turned on.
 R6Disp:  Grimme-D3 Dispersion energy=       -0.0091639329 Hartrees.
 Nuclear repulsion after empirical dispersion term =      344.3252093083 Hartrees.
 ------------------------------------------------------------------------------
 Polarizable Continuum Model (PCM)
 =================================
 Model                : PCM.
 Atomic radii         : UFF (Universal Force Field).
 Polarization charges : Total charges.
 Charge compensation  : None.
 Solution method      : On-the-fly selection.
 Cavity type          : Scaled VdW (van der Waals Surface) (Alpha=1.100).
 Cavity algorithm     : GePol (No added spheres)
                        Default sphere list used, NSphG=   14.
                        Lebedev-Laikov grids with approx.  5.0 points / Ang**2.
                        Smoothing algorithm: York/Karplus (Gamma=1.0000).
                        Polarization charges: spherical gaussians, with
                                              point-specific exponents (IZeta= 3).
                        Self-potential: point-specific (ISelfS= 7).
                        Self-field    : sphere-specific E.n sum rule (ISelfD= 2).
 1st derivatives      : Analytical E(r).r(x)/FMM algorithm (CHGder, D1EAlg=3).
                        Cavity 1st derivative terms included.
 Solvent              : Water, Eps=  78.355300 Eps(inf)=   1.777849
 ------------------------------------------------------------------------------
 Spheres list:
 ISph  on   Nord     Re0    Alpha      Xe            Ye            Ze
    1   O      1    1.7500  1.100      2.770801      0.044101     -0.000000
    2   C      2    1.9255  1.100      1.413741      0.027172      0.000001
    3   C      3    1.9255  1.100      0.704479      1.244194     -0.000001
    4   C      4    1.9255  1.100     -0.704478      1.244190      0.000001
    5   C      5    1.9255  1.100     -1.413744      0.027167     -0.000004
    6   O      6    1.7500  1.100     -2.770801      0.044104      0.000003
    7   C      7    1.9255  1.100     -0.704020     -1.190070     -0.000002
    8   C      8    1.9255  1.100      0.704019     -1.190070      0.000001
    9   H      9    1.4430  1.100      3.052138     -0.895063      0.000002
   10   H     10    1.4430  1.100      1.211944      2.132187      0.000002
   11   H     11    1.4430  1.100     -1.211941      2.132187     -0.000004
   12   H     12    1.4430  1.100     -3.052136     -0.895067      0.000001
   13   H     13    1.4430  1.100     -1.211568     -2.077691     -0.000000
   14   H     14    1.4430  1.100      1.211580     -2.077688      0.000003
 ------------------------------------------------------------------------------
 GePol: Number of generator spheres                  =      14
 GePol: Total number of spheres                      =      14
 GePol: Number of exposed spheres                    =      14 (100.00%)
 GePol: Number of points                             =    1238
 GePol: Average weight of points                     =       0.13
 GePol: Minimum weight of points                     =   0.26D-09
 GePol: Maximum weight of points                     =    0.20577
 GePol: Number of points with low weight             =      68
 GePol: Fraction of low-weight points (<1% of avg)   =       5.49%
 GePol: Cavity surface area                          =    163.867 Ang**2
 GePol: Cavity volume                                =    158.041 Ang**3
 Leave Link  301 at Mon Feb 22 21:17:47 2021, MaxMem=   104857600 cpu:               1.8 elap:               0.1
 (Enter /sw/arch/RedHatEnterpriseServer7/EB_production/2019/software/Gaussian/g16.c01/l302.exe)
 NPDir=0 NMtPBC=     1 NCelOv=     1 NCel=       1 NClECP=     1 NCelD=      1
         NCelK=      1 NCelE2=     1 NClLst=     1 CellRange=     0.0.
 One-electron integrals computed using PRISM.
 One-electron integral symmetry used in STVInt
 PrsmSu:  requested number of processors reduced to:  29 ShMem   1 Linda.
 NBasis=   188 RedAO= T EigKep=  1.25D-05  NBF=   188
 NBsUse=   188 1.00D-06 EigRej= -1.00D+00 NBFU=   188
 Precomputing XC quadrature grid using
 IXCGrd= 4 IRadAn=           5 IRanWt=          -1 IRanGd=           0 AccXCQ= 0.00D+00.
 Generated NRdTot=       0 NPtTot=           0 NUsed=           0 NTot=          32
 NSgBfM=   193   193   193   193   193 MxSgAt=    14 MxSgA2=    14.
 Leave Link  302 at Mon Feb 22 21:17:47 2021, MaxMem=   104857600 cpu:               8.4 elap:               0.3
 (Enter /sw/arch/RedHatEnterpriseServer7/EB_production/2019/software/Gaussian/g16.c01/l303.exe)
 DipDrv:  MaxL=1.
 Leave Link  303 at Mon Feb 22 21:17:47 2021, MaxMem=   104857600 cpu:               2.8 elap:               0.2
 (Enter /sw/arch/RedHatEnterpriseServer7/EB_production/2019/software/Gaussian/g16.c01/l401.exe)
 ExpMin= 9.52D-02 ExpMax= 2.70D+04 ExpMxC= 9.22D+02 IAcc=3 IRadAn=         5 AccDes= 0.00D+00
 Harris functional with IExCor=  404 and IRadAn=       5 diagonalized for initial guess.
 HarFok:  IExCor=  404 AccDes= 0.00D+00 IRadAn=         5 IDoV= 1 UseB2=F ITyADJ=14
 ICtDFT=  3500011 ScaDFX=  1.000000  1.000000  1.000000  1.000000
 FoFCou: FMM=F IPFlag=           0 FMFlag=      100000 FMFlg1=           0
         NFxFlg=           0 DoJE=T BraDBF=F KetDBF=T FulRan=T
         wScrn=  0.000000 ICntrl=       500 IOpCl=  0 I1Cent=   200000004 NGrid=           0
         NMat0=    1 NMatS0=      1 NMatT0=    0 NMatD0=    1 NMtDS0=    0 NMtDT0=    0
 Petite list used in FoFCou.
 Harris En= -382.964846871298    
 JPrj=0 DoOrth=F DoCkMO=F.
 Leave Link  401 at Mon Feb 22 21:17:48 2021, MaxMem=   104857600 cpu:               9.4 elap:               0.3
 (Enter /sw/arch/RedHatEnterpriseServer7/EB_production/2019/software/Gaussian/g16.c01/l502.exe)
 Integral symmetry usage will be decided dynamically.
 Closed shell SCF:
 Using DIIS extrapolation, IDIIS=  1040.
 NGot=   104857600 LenX=   104772142 LenY=   104733285
 Requested convergence on RMS density matrix=1.00D-08 within 128 cycles.
 Requested convergence on MAX density matrix=1.00D-06.
 Requested convergence on             energy=1.00D-06.
 No special actions if energy rises.
 Fock matrices will be formed incrementally for  20 cycles.

 Cycle   1  Pass 1  IDiag  1:
 FoFJK:  IHMeth= 1 ICntrl=     500 DoSepK=F KAlg= 0 I1Cent=           0 FoldK=F
 IRaf= 940000000 NMat=       1 IRICut=       1 DoRegI=T DoRafI=F ISym2E= 0 IDoP0=0 IntGTp=1.
 FoFCou: FMM=F IPFlag=           0 FMFlag=      100000 FMFlg1=           0
         NFxFlg=           0 DoJE=T BraDBF=F KetDBF=F FulRan=T
         wScrn=  0.000000 ICntrl=       500 IOpCl=  0 I1Cent=           0 NGrid=           0
         NMat0=    1 NMatS0=      1 NMatT0=    0 NMatD0=    1 NMtDS0=    0 NMtDT0=    0
 Symmetry not used in FoFCou.
 Inv3:  Mode=1 IEnd=     4597932.
 Iteration    1 A*A^-1 deviation from unit magnitude is 3.33D-15 for    746.
 Iteration    1 A*A^-1 deviation from orthogonality  is 1.96D-15 for    845    308.
 Iteration    1 A^-1*A deviation from unit magnitude is 3.33D-15 for    746.
 Iteration    1 A^-1*A deviation from orthogonality  is 2.34D-15 for    846    360.
 E= -382.651217548414    
 DIIS: error= 4.67D-02 at cycle   1 NSaved=   1.
 NSaved= 1 IEnMin= 1 EnMin= -382.651217548414     IErMin= 1 ErrMin= 4.67D-02
 ErrMax= 4.67D-02  0.00D+00 EMaxC= 1.00D-01 BMatC= 1.96D-01 BMatP= 1.96D-01
 IDIUse=3 WtCom= 5.33D-01 WtEn= 4.67D-01
 Coeff-Com:  0.100D+01
 Coeff-En:   0.100D+01
 Coeff:      0.100D+01
 Gap=     0.149 Goal=   None    Shift=    0.000
 GapD=    0.149 DampG=1.000 DampE=0.500 DampFc=0.5000 IDamp=-1.
 Damping current iteration by 5.00D-01
 RMSDP=1.68D-02 MaxDP=8.52D-01              OVMax= 1.76D-01

 Cycle   2  Pass 1  IDiag  1:
 RMSU=  8.41D-03    CP:  1.01D+00
 E= -382.716922376891     Delta-E=       -0.065704828477 Rises=F Damp=T
 DIIS: error= 9.09D-03 at cycle   2 NSaved=   2.
 NSaved= 2 IEnMin= 2 EnMin= -382.716922376891     IErMin= 2 ErrMin= 9.09D-03
 ErrMax= 9.09D-03  0.00D+00 EMaxC= 1.00D-01 BMatC= 1.70D-02 BMatP= 1.96D-01
 IDIUse=3 WtCom= 9.09D-01 WtEn= 9.09D-02
 Coeff-Com:  0.170D+00 0.830D+00
 Coeff-En:   0.257D+00 0.743D+00
 Coeff:      0.178D+00 0.822D+00
 Gap=     0.140 Goal=   None    Shift=    0.000
 RMSDP=4.43D-03 MaxDP=2.23D-01 DE=-6.57D-02 OVMax= 1.02D-01

 Cycle   3  Pass 1  IDiag  1:
 RMSU=  2.06D-03    CP:  9.87D-01  5.35D-01
 E= -382.824595987133     Delta-E=       -0.107673610243 Rises=F Damp=F
 DIIS: error= 5.38D-03 at cycle   3 NSaved=   3.
 NSaved= 3 IEnMin= 3 EnMin= -382.824595987133     IErMin= 3 ErrMin= 5.38D-03
 ErrMax= 5.38D-03  0.00D+00 EMaxC= 1.00D-01 BMatC= 6.66D-03 BMatP= 1.70D-02
 IDIUse=3 WtCom= 9.46D-01 WtEn= 5.38D-02
 Coeff-Com:  0.477D-01 0.390D+00 0.562D+00
 Coeff-En:   0.000D+00 0.000D+00 0.100D+01
 Coeff:      0.452D-01 0.369D+00 0.586D+00
 Gap=     0.129 Goal=   None    Shift=    0.000
 RMSDP=8.02D-04 MaxDP=3.30D-02 DE=-1.08D-01 OVMax= 2.40D-02

 Cycle   4  Pass 1  IDiag  1:
 RMSU=  6.86D-04    CP:  9.91D-01  5.83D-01  9.66D-01
 E= -382.827735823358     Delta-E=       -0.003139836224 Rises=F Damp=F
 DIIS: error= 3.88D-03 at cycle   4 NSaved=   4.
 NSaved= 4 IEnMin= 4 EnMin= -382.827735823358     IErMin= 4 ErrMin= 3.88D-03
 ErrMax= 3.88D-03  0.00D+00 EMaxC= 1.00D-01 BMatC= 2.63D-03 BMatP= 6.66D-03
 IDIUse=3 WtCom= 9.61D-01 WtEn= 3.88D-02
 Coeff-Com:  0.106D-01 0.111D+00 0.394D+00 0.485D+00
 Coeff-En:   0.000D+00 0.000D+00 0.324D+00 0.676D+00
 Coeff:      0.102D-01 0.106D+00 0.391D+00 0.492D+00
 Gap=     0.132 Goal=   None    Shift=    0.000
 RMSDP=4.82D-04 MaxDP=2.45D-02 DE=-3.14D-03 OVMax= 1.49D-02

 Cycle   5  Pass 1  IDiag  1:
 RMSU=  1.29D-04    CP:  9.88D-01  5.43D-01  9.67D-01  5.37D-01
 E= -382.829862249096     Delta-E=       -0.002126425738 Rises=F Damp=F
 DIIS: error= 1.01D-03 at cycle   5 NSaved=   5.
 NSaved= 5 IEnMin= 5 EnMin= -382.829862249096     IErMin= 5 ErrMin= 1.01D-03
 ErrMax= 1.01D-03  0.00D+00 EMaxC= 1.00D-01 BMatC= 1.34D-04 BMatP= 2.63D-03
 IDIUse=3 WtCom= 9.90D-01 WtEn= 1.01D-02
 Coeff-Com:  0.353D-02 0.402D-01 0.196D+00 0.286D+00 0.474D+00
 Coeff-En:   0.000D+00 0.000D+00 0.000D+00 0.000D+00 0.100D+01
 Coeff:      0.350D-02 0.398D-01 0.194D+00 0.283D+00 0.479D+00
 Gap=     0.130 Goal=   None    Shift=    0.000
 RMSDP=1.28D-04 MaxDP=5.79D-03 DE=-2.13D-03 OVMax= 6.63D-03

 Cycle   6  Pass 1  IDiag  1:
 RMSU=  5.55D-05    CP:  9.89D-01  5.56D-01  9.66D-01  5.64D-01  7.31D-01
 E= -382.829971308756     Delta-E=       -0.000109059660 Rises=F Damp=F
 DIIS: error= 3.58D-04 at cycle   6 NSaved=   6.
 NSaved= 6 IEnMin= 6 EnMin= -382.829971308756     IErMin= 6 ErrMin= 3.58D-04
 ErrMax= 3.58D-04  0.00D+00 EMaxC= 1.00D-01 BMatC= 1.90D-05 BMatP= 1.34D-04
 IDIUse=3 WtCom= 9.96D-01 WtEn= 3.58D-03
 Coeff-Com:  0.686D-03 0.917D-02 0.647D-01 0.105D+00 0.304D+00 0.516D+00
 Coeff-En:   0.000D+00 0.000D+00 0.000D+00 0.000D+00 0.149D+00 0.851D+00
 Coeff:      0.684D-03 0.914D-02 0.645D-01 0.105D+00 0.303D+00 0.518D+00
 Gap=     0.131 Goal=   None    Shift=    0.000
 RMSDP=2.72D-05 MaxDP=6.96D-04 DE=-1.09D-04 OVMax= 2.59D-03

 Cycle   7  Pass 1  IDiag  1:
 RMSU=  1.31D-05    CP:  9.89D-01  5.54D-01  9.67D-01  5.65D-01  7.66D-01
                    CP:  6.50D-01
 E= -382.829989531662     Delta-E=       -0.000018222906 Rises=F Damp=F
 DIIS: error= 1.05D-04 at cycle   7 NSaved=   7.
 NSaved= 7 IEnMin= 7 EnMin= -382.829989531662     IErMin= 7 ErrMin= 1.05D-04
 ErrMax= 1.05D-04  0.00D+00 EMaxC= 1.00D-01 BMatC= 1.01D-06 BMatP= 1.90D-05
 IDIUse=3 WtCom= 9.99D-01 WtEn= 1.05D-03
 Coeff-Com:  0.334D-03 0.455D-02 0.355D-01 0.588D-01 0.179D+00 0.330D+00
 Coeff-Com:  0.392D+00
 Coeff-En:   0.000D+00 0.000D+00 0.000D+00 0.000D+00 0.000D+00 0.000D+00
 Coeff-En:   0.100D+01
 Coeff:      0.334D-03 0.454D-02 0.355D-01 0.587D-01 0.179D+00 0.330D+00
 Coeff:      0.393D+00
 Gap=     0.131 Goal=   None    Shift=    0.000
 RMSDP=6.79D-06 MaxDP=1.74D-04 DE=-1.82D-05 OVMax= 7.59D-04

 Cycle   8  Pass 1  IDiag  1:
 RMSU=  5.09D-06    CP:  9.89D-01  5.54D-01  9.66D-01  5.65D-01  7.66D-01
                    CP:  6.72D-01  7.63D-01
 E= -382.829990689186     Delta-E=       -0.000001157524 Rises=F Damp=F
 DIIS: error= 2.35D-05 at cycle   8 NSaved=   8.
 NSaved= 8 IEnMin= 8 EnMin= -382.829990689186     IErMin= 8 ErrMin= 2.35D-05
 ErrMax= 2.35D-05  0.00D+00 EMaxC= 1.00D-01 BMatC= 7.35D-08 BMatP= 1.01D-06
 IDIUse=1 WtCom= 1.00D+00 WtEn= 0.00D+00
 Coeff-Com:  0.633D-04 0.783D-03 0.751D-02 0.128D-01 0.408D-01 0.857D-01
 Coeff-Com:  0.232D+00 0.621D+00
 Coeff:      0.633D-04 0.783D-03 0.751D-02 0.128D-01 0.408D-01 0.857D-01
 Coeff:      0.232D+00 0.621D+00
 Gap=     0.131 Goal=   None    Shift=    0.000
 RMSDP=2.74D-06 MaxDP=1.18D-04 DE=-1.16D-06 OVMax= 1.54D-04

 Cycle   9  Pass 1  IDiag  1:
 RMSU=  1.27D-06    CP:  9.89D-01  5.54D-01  9.66D-01  5.65D-01  7.65D-01
                    CP:  6.71D-01  8.33D-01  8.45D-01
 E= -382.829990708924     Delta-E=       -0.000000019738 Rises=F Damp=F
 DIIS: error= 1.94D-06 at cycle   9 NSaved=   9.
 NSaved= 9 IEnMin= 9 EnMin= -382.829990708924     IErMin= 9 ErrMin= 1.94D-06
 ErrMax= 1.94D-06  0.00D+00 EMaxC= 1.00D-01 BMatC= 9.21D-10 BMatP= 7.35D-08
 IDIUse=1 WtCom= 1.00D+00 WtEn= 0.00D+00
 Coeff-Com: -0.110D-06-0.510D-04-0.990D-04-0.168D-03-0.208D-04 0.246D-02
 Coeff-Com:  0.352D-01 0.165D+00 0.797D+00
 Coeff:     -0.110D-06-0.510D-04-0.990D-04-0.168D-03-0.208D-04 0.246D-02
 Coeff:      0.352D-01 0.165D+00 0.797D+00
 Gap=     0.131 Goal=   None    Shift=    0.000
 RMSDP=4.15D-07 MaxDP=1.82D-05 DE=-1.97D-08 OVMax= 8.49D-06

 Cycle  10  Pass 1  IDiag  1:
 RMSU=  1.78D-07    CP:  9.89D-01  5.54D-01  9.66D-01  5.65D-01  7.66D-01
                    CP:  6.74D-01  8.43D-01  8.76D-01  9.01D-01
 E= -382.829990709697     Delta-E=       -0.000000000774 Rises=F Damp=F
 DIIS: error= 2.67D-07 at cycle  10 NSaved=  10.
 NSaved=10 IEnMin=10 EnMin= -382.829990709697     IErMin=10 ErrMin= 2.67D-07
 ErrMax= 2.67D-07  0.00D+00 EMaxC= 1.00D-01 BMatC= 1.24D-11 BMatP= 9.21D-10
 IDIUse=1 WtCom= 1.00D+00 WtEn= 0.00D+00
 Coeff-Com: -0.437D-07-0.165D-04-0.929D-04-0.198D-03-0.469D-03-0.560D-03
 Coeff-Com:  0.328D-02 0.235D-01 0.151D+00 0.823D+00
 Coeff:     -0.437D-07-0.165D-04-0.929D-04-0.198D-03-0.469D-03-0.560D-03
 Coeff:      0.328D-02 0.235D-01 0.151D+00 0.823D+00
 Gap=     0.131 Goal=   None    Shift=    0.000
 RMSDP=6.48D-08 MaxDP=1.55D-06 DE=-7.74D-10 OVMax= 5.76D-07

 Cycle  11  Pass 1  IDiag  1:
 RMSU=  1.76D-08    CP:  9.89D-01  5.54D-01  9.66D-01  5.65D-01  7.66D-01
                    CP:  6.74D-01  8.46D-01  8.80D-01  9.16D-01  8.97D-01
 E= -382.829990709706     Delta-E=       -0.000000000009 Rises=F Damp=F
 DIIS: error= 5.04D-08 at cycle  11 NSaved=  11.
 NSaved=11 IEnMin=11 EnMin= -382.829990709706     IErMin=11 ErrMin= 5.04D-08
 ErrMax= 5.04D-08  0.00D+00 EMaxC= 1.00D-01 BMatC= 3.51D-13 BMatP= 1.24D-11
 IDIUse=1 WtCom= 1.00D+00 WtEn= 0.00D+00
 Coeff-Com:  0.527D-08-0.366D-05-0.217D-04-0.484D-04-0.107D-03-0.198D-03
 Coeff-Com:  0.168D-03 0.340D-02 0.227D-01 0.190D+00 0.784D+00
 Coeff:      0.527D-08-0.366D-05-0.217D-04-0.484D-04-0.107D-03-0.198D-03
 Coeff:      0.168D-03 0.340D-02 0.227D-01 0.190D+00 0.784D+00
 Gap=     0.131 Goal=   None    Shift=    0.000
 RMSDP=8.15D-09 MaxDP=1.30D-07 DE=-9.15D-12 OVMax= 2.13D-07

 Error on total polarization charges =  0.01154
 SCF Done:  E(RB-P86) =  -382.829990710     A.U. after   11 cycles
            NFock= 11  Conv=0.82D-08     -V/T= 2.0033
 KE= 3.815557765317D+02 PE=-1.583801805698D+03 EE= 4.750908291482D+02
 Leave Link  502 at Mon Feb 22 21:17:55 2021, MaxMem=   104857600 cpu:             212.5 elap:               6.9
 (Enter /sw/arch/RedHatEnterpriseServer7/EB_production/2019/software/Gaussian/g16.c01/l601.exe)
 Copying SCF densities to generalized density rwf, IOpCl= 0 IROHF=0.

 **********************************************************************

            Population analysis using the SCF Density.

 **********************************************************************

 Orbital symmetries:
       Occupied  (A) (A) (A) (A) (A) (A) (A) (A) (A) (A) (A) (A)
                 (A) (A) (A) (A) (A) (A) (A) (A) (A) (A) (A) (A)
                 (A) (A) (A) (A) (A)
       Virtual   (A) (A) (A) (A) (A) (A) (A) (A) (A) (A) (A) (A)
                 (A) (A) (A) (A) (A) (A) (A) (A) (A) (A) (A) (A)
                 (A) (A) (A) (A) (A) (A) (A) (A) (A) (A) (A) (A)
                 (A) (A) (A) (A) (A) (A) (A) (A) (A) (A) (A) (A)
                 (A) (A) (A) (A) (A) (A) (A) (A) (A) (A) (A) (A)
                 (A) (A) (A) (A) (A) (A) (A) (A) (A) (A) (A) (A)
                 (A) (A) (A) (A) (A) (A) (A) (A) (A) (A) (A) (A)
                 (A) (A) (A) (A) (A) (A) (A) (A) (A) (A) (A) (A)
                 (A) (A) (A) (A) (A) (A) (A) (A) (A) (A) (A) (A)
                 (A) (A) (A) (A) (A) (A) (A) (A) (A) (A) (A) (A)
                 (A) (A) (A) (A) (A) (A) (A) (A) (A) (A) (A) (A)
                 (A) (A) (A) (A) (A) (A) (A) (A) (A) (A) (A) (A)
                 (A) (A) (A) (A) (A) (A) (A) (A) (A) (A) (A) (A)
                 (A) (A) (A)
 The electronic state is 1-A.
 Alpha  occ. eigenvalues --  -18.80521 -18.80521  -9.96068  -9.96067  -9.90280
 Alpha  occ. eigenvalues --   -9.90248  -9.90069  -9.90037  -0.98663  -0.98578
 Alpha  occ. eigenvalues --   -0.77677  -0.69294  -0.67002  -0.58511  -0.56651
 Alpha  occ. eigenvalues --   -0.51009  -0.49503  -0.45229  -0.41925  -0.39369
 Alpha  occ. eigenvalues --   -0.38124  -0.37515  -0.37310  -0.35593  -0.32714
 Alpha  occ. eigenvalues --   -0.30889  -0.27657  -0.23892  -0.18631
 Alpha virt. eigenvalues --   -0.05546  -0.02199   0.01936   0.02454   0.05981
 Alpha virt. eigenvalues --    0.08300   0.09673   0.10638   0.10975   0.12180
 Alpha virt. eigenvalues --    0.15044   0.16242   0.17933   0.18065   0.20351
 Alpha virt. eigenvalues --    0.20367   0.22301   0.23859   0.24291   0.24542
 Alpha virt. eigenvalues --    0.25325   0.28771   0.29664   0.29685   0.30546
 Alpha virt. eigenvalues --    0.31561   0.33522   0.33649   0.36057   0.37185
 Alpha virt. eigenvalues --    0.38294   0.41131   0.42139   0.42691   0.43461
 Alpha virt. eigenvalues --    0.45079   0.45868   0.46384   0.46636   0.47063
 Alpha virt. eigenvalues --    0.50002   0.51071   0.52134   0.56240   0.59773
 Alpha virt. eigenvalues --    0.62448   0.62464   0.63929   0.67084   0.67194
 Alpha virt. eigenvalues --    0.72528   0.78426   0.82279   0.82977   0.87558
 Alpha virt. eigenvalues --    1.08698   1.14506   1.16104   1.16449   1.17317
 Alpha virt. eigenvalues --    1.18999   1.21393   1.23865   1.24581   1.27397
 Alpha virt. eigenvalues --    1.28441   1.30362   1.33160   1.34315   1.35992
 Alpha virt. eigenvalues --    1.36716   1.37414   1.38302   1.38594   1.40461
 Alpha virt. eigenvalues --    1.43186   1.43968   1.45354   1.45735   1.45752
 Alpha virt. eigenvalues --    1.46057   1.46429   1.49411   1.56001   1.67738
 Alpha virt. eigenvalues --    1.71416   1.72434   1.73137   1.74426   1.75911
 Alpha virt. eigenvalues --    1.77730   1.81608   1.83181   1.83425   1.87377
 Alpha virt. eigenvalues --    1.89559   1.92093   1.92984   1.97486   1.98597
 Alpha virt. eigenvalues --    2.08660   2.09896   2.11394   2.14557   2.18637
 Alpha virt. eigenvalues --    2.19435   2.19501   2.20184   2.23229   2.25217
 Alpha virt. eigenvalues --    2.29751   2.31218   2.31865   2.42315   2.42600
 Alpha virt. eigenvalues --    2.48724   2.49245   2.50512   2.52895   2.54475
 Alpha virt. eigenvalues --    2.55966   2.56518   2.62772   2.65601   2.72080
 Alpha virt. eigenvalues --    2.72407   2.80249   2.83773   2.84924   2.87904
 Alpha virt. eigenvalues --    2.88393   2.90937   2.91013   2.97028   2.98805
 Alpha virt. eigenvalues --    3.04300   3.06349   3.08043   3.08957   3.13835
 Alpha virt. eigenvalues --    3.16027   3.21624   3.26463   3.27501   3.34549
 Alpha virt. eigenvalues --    3.45969   3.51811   3.86745   4.01755   4.16429
 Alpha virt. eigenvalues --    4.22745  21.11677  21.64136  21.64543  21.81436
 Alpha virt. eigenvalues --   21.83857  21.96022  43.13117  43.16983
          Condensed to atoms (all electrons):
               1          2          3          4          5          6
     1  O    7.791870   0.369512  -0.080344   0.007748  -0.001020   0.000003
     2  C    0.369512   5.063713   0.418672  -0.009877  -0.114812  -0.001020
     3  C   -0.080344   0.418672   5.158613   0.444209  -0.009876   0.007748
     4  C    0.007748  -0.009877   0.444209   5.158622   0.418675  -0.080346
     5  C   -0.001020  -0.114812  -0.009876   0.418675   5.063714   0.369513
     6  O    0.000003  -0.001020   0.007748  -0.080346   0.369513   7.791868
     7  C    0.019981   0.137835  -0.056462  -0.083934   0.198025  -0.118703
     8  C   -0.118704   0.198036  -0.083934  -0.056460   0.137832   0.019980
     9  H    0.304398  -0.024154   0.012959  -0.001090  -0.000275  -0.000000
    10  H    0.003995  -0.084903   0.445066  -0.056218   0.021066  -0.000113
    11  H   -0.000113   0.021066  -0.056218   0.445066  -0.084903   0.003995
    12  H   -0.000000  -0.000275  -0.001090   0.012960  -0.024153   0.304396
    13  H   -0.000096   0.006307   0.002609   0.005202  -0.056513  -0.006736
    14  H   -0.006736  -0.056514   0.005203   0.002609   0.006307  -0.000096
               7          8          9         10         11         12
     1  O    0.019981  -0.118704   0.304398   0.003995  -0.000113  -0.000000
     2  C    0.137835   0.198036  -0.024154  -0.084903   0.021066  -0.000275
     3  C   -0.056462  -0.083934   0.012959   0.445066  -0.056218  -0.001090
     4  C   -0.083934  -0.056460  -0.001090  -0.056218   0.445066   0.012960
     5  C    0.198025   0.137832  -0.000275   0.021066  -0.084903  -0.024153
     6  O   -0.118703   0.019980  -0.000000  -0.000113   0.003995   0.304396
     7  C    5.917045  -0.202483   0.006204  -0.006494   0.020791  -0.029735
     8  C   -0.202483   5.917023  -0.029733   0.020791  -0.006494   0.006204
     9  H    0.006204  -0.029733   0.427589  -0.000855   0.000028   0.000001
    10  H   -0.006494   0.020791  -0.000855   0.514014  -0.009601   0.000028
    11  H    0.020791  -0.006494   0.000028  -0.009601   0.514014  -0.000855
    12  H   -0.029735   0.006204   0.000001   0.000028  -0.000855   0.427590
    13  H    0.415559  -0.019905  -0.000068   0.000022  -0.000192   0.000337
    14  H   -0.019906   0.415560   0.000337  -0.000192   0.000022  -0.000068
              13         14
     1  O   -0.000096  -0.006736
     2  C    0.006307  -0.056514
     3  C    0.002609   0.005203
     4  C    0.005202   0.002609
     5  C   -0.056513   0.006307
     6  O   -0.006736  -0.000096
     7  C    0.415559  -0.019906
     8  C   -0.019905   0.415560
     9  H   -0.000068   0.000337
    10  H    0.000022  -0.000192
    11  H   -0.000192   0.000022
    12  H    0.000337  -0.000068
    13  H    0.495361  -0.002789
    14  H   -0.002789   0.495363
 Mulliken charges:
               1
     1  O   -0.290493
     2  C    0.076414
     3  C   -0.207155
     4  C   -0.207166
     5  C    0.076420
     6  O   -0.290490
     7  C   -0.197724
     8  C   -0.197714
     9  H    0.304660
    10  H    0.153394
    11  H    0.153394
    12  H    0.304660
    13  H    0.160901
    14  H    0.160900
 Sum of Mulliken charges =  -0.00000
 Mulliken charges with hydrogens summed into heavy atoms:
               1
     1  O    0.014166
     2  C    0.076414
     3  C   -0.053761
     4  C   -0.053772
     5  C    0.076420
     6  O    0.014170
     7  C   -0.036823
     8  C   -0.036814
 Electronic spatial extent (au):  <R**2>=            949.3301
 Charge=             -0.0000 electrons
 Dipole moment (field-independent basis, Debye):
    X=             -0.0000    Y=             -3.5781    Z=              0.0000  Tot=              3.5781
 Quadrupole moment (field-independent basis, Debye-Ang):
   XX=            -44.3133   YY=            -38.0410   ZZ=            -50.5538
   XY=              0.0000   XZ=              0.0000   YZ=             -0.0000
 Traceless Quadrupole moment (field-independent basis, Debye-Ang):
   XX=             -0.0106   YY=              6.2617   ZZ=             -6.2511
   XY=              0.0000   XZ=              0.0000   YZ=             -0.0000
 Octapole moment (field-independent basis, Debye-Ang**2):
  XXX=             -0.0002  YYY=             -4.5546  ZZZ=              0.0000  XYY=              0.0000
  XXY=            -37.9619  XXZ=              0.0000  XZZ=             -0.0000  YZZ=             -0.8652
  YYZ=              0.0000  XYZ=              0.0000
 Hexadecapole moment (field-independent basis, Debye-Ang**3):
 XXXX=           -797.1924 YYYY=           -270.3841 ZZZZ=            -55.4269 XXXY=             -0.0001
 XXXZ=              0.0001 YYYX=              0.0001 YYYZ=             -0.0001 ZZZX=             -0.0000
 ZZZY=             -0.0000 XXYY=           -145.9271 XXZZ=           -154.4542 YYZZ=            -67.2121
 XXYZ=             -0.0001 YYXZ=              0.0000 ZZXY=              0.0000
 N-N= 3.443252093083D+02 E-N=-1.583801808700D+03  KE= 3.815557765317D+02
 No NMR shielding tensors so no spin-rotation constants.
 Leave Link  601 at Mon Feb 22 21:17:55 2021, MaxMem=   104857600 cpu:               4.1 elap:               0.2
 (Enter /sw/arch/RedHatEnterpriseServer7/EB_production/2019/software/Gaussian/g16.c01/l701.exe)
 ... and contract with generalized density number  0.
 Compute integral first derivatives.
 R6Disp: Adding Grimme-D3 dispersion energy 1st derivatives to the gradient.
 PrsmSu:  requested number of processors reduced to:  29 ShMem   1 Linda.
 D1PCM: PCM CHGder 1st derivatives, ID1Alg=3 FixD1E=F DoIter=F DoCFld=F I1PDM=0.
 GePol: Maximum number of non-zero 1st derivatives   =     186
 CoulSu:  requested number of processors reduced to:  29 ShMem   1 Linda.
 CoulSu:  requested number of processors reduced to:  30 ShMem   1 Linda.
 Leave Link  701 at Mon Feb 22 21:17:56 2021, MaxMem=   104857600 cpu:              19.6 elap:               0.7
 (Enter /sw/arch/RedHatEnterpriseServer7/EB_production/2019/software/Gaussian/g16.c01/l702.exe)
 L702 exits ... SP integral derivatives will be done elsewhere.
 Leave Link  702 at Mon Feb 22 21:17:56 2021, MaxMem=   104857600 cpu:               1.0 elap:               0.1
 (Enter /sw/arch/RedHatEnterpriseServer7/EB_production/2019/software/Gaussian/g16.c01/l703.exe)
 Integral derivatives from FoFJK, PRISM(SPDF).
 Compute integral first derivatives, UseDBF=F ICtDFT=           0.
 Calling FoFJK, ICntrl=      2527 FMM=F ISym2X=0 I1Cent= 0 IOpClX= 0 NMat=1 NMatS=1 NMatT=0.
 FoFJK:  IHMeth= 1 ICntrl=    2527 DoSepK=F KAlg= 0 I1Cent=           0 FoldK=F
 IRaf=         0 NMat=       1 IRICut=       1 DoRegI=T DoRafI=F ISym2E= 0 IDoP0=0 IntGTp=1.
 FoFCou: FMM=F IPFlag=           0 FMFlag=      100000 FMFlg1=         800
         NFxFlg=           0 DoJE=F BraDBF=F KetDBF=F FulRan=T
         wScrn=  0.000000 ICntrl=      2527 IOpCl=  0 I1Cent=           0 NGrid=           0
         NMat0=    1 NMatS0=      1 NMatT0=    0 NMatD0=    1 NMtDS0=    0 NMtDT0=    0
 Symmetry not used in FoFCou.
 Leave Link  703 at Mon Feb 22 21:17:57 2021, MaxMem=   104857600 cpu:              32.4 elap:               1.1
 (Enter /sw/arch/RedHatEnterpriseServer7/EB_production/2019/software/Gaussian/g16.c01/l716.exe)
 Dipole        =-1.18168199D-05-1.40773644D+00 6.85315068D-07
 ***** Axes restored to original set *****
 -------------------------------------------------------------------
 Center     Atomic                   Forces (Hartrees/Bohr)
 Number     Number              X              Y              Z
 -------------------------------------------------------------------
      1        8           0.004909755   -0.015872968   -0.004346740
      2        6          -0.004775669    0.019479825    0.013671558
      3        6           0.007860825    0.002802147    0.058990368
      4        6           0.021136648   -0.049002253    0.026478623
      5        6           0.005509130   -0.020649088   -0.011516698
      6        8          -0.002064203    0.011340709    0.012738274
      7        6          -0.007517069   -0.005423956   -0.062826016
      8        6          -0.022591890    0.053393312   -0.025917642
      9        1          -0.000705446   -0.001361272   -0.007887649
     10        1          -0.007561218   -0.001469214   -0.053877059
     11        1          -0.019269973    0.044217832   -0.025204600
     12        1          -0.002859730    0.007041279   -0.002620542
     13        1           0.008175861    0.000338516    0.055334373
     14        1           0.019752979   -0.044834869    0.026983750
 -------------------------------------------------------------------
 Cartesian Forces:  Max     0.062826016 RMS     0.026387064
 Leave Link  716 at Mon Feb 22 21:17:57 2021, MaxMem=   104857600 cpu:               0.9 elap:               0.1
 (Enter /sw/arch/RedHatEnterpriseServer7/EB_production/2019/software/Gaussian/g16.c01/l103.exe)

 GradGradGradGradGradGradGradGradGradGradGradGradGradGradGradGradGradGrad
 Berny optimization.
 FormGI is forming the generalized inverse of G from B-inverse, IUseBI=4.
 Internal  Forces:  Max     0.055933455 RMS     0.014949752
 Search for a local minimum.
 Step number   1 out of a maximum of   72
 All quantities printed in internal units (Hartrees-Bohrs-Radians)
 RMS Force = .14950D-01 SwitMx=.10000D-02 MixMth= 1
 Mixed Optimization -- RFO/linear search
 Second derivative matrix not updated -- first step.
 ITU=  0
     Eigenvalues ---    0.01971   0.01972   0.01973   0.01973   0.01975
     Eigenvalues ---    0.01976   0.01977   0.02020   0.02030   0.02258
     Eigenvalues ---    0.02258   0.16000   0.16000   0.16000   0.16000
     Eigenvalues ---    0.16000   0.16000   0.22000   0.22976   0.24000
     Eigenvalues ---    0.25000   0.25000   0.40310   0.40710   0.43899
     Eigenvalues ---    0.43900   0.43943   0.43944   0.44159   0.44189
     Eigenvalues ---    0.44204   0.44273   0.51306   0.51308   0.53524
     Eigenvalues ---    0.53525
 RFO step:  Lambda=-3.04342507D-02 EMin= 1.97080464D-02
 Linear search not attempted -- first point.
 Iteration  1 RMS(Cart)=  0.04962923 RMS(Int)=  0.00142983
 Iteration  2 RMS(Cart)=  0.00157201 RMS(Int)=  0.00000153
 Iteration  3 RMS(Cart)=  0.00000009 RMS(Int)=  0.00000153
 ITry= 1 IFail=0 DXMaxC= 2.04D-01 DCOld= 1.00D+10 DXMaxT= 3.00D-01 DXLimC= 3.00D+00 Rises=F
 Variable       Old X    -DE/DX   Delta X   Delta X   Delta X     New X
                                 (Linear)    (Quad)   (Total)
    R1        2.56467   0.02153   0.00000   0.03805   0.03805   2.60273
    R2        1.85268  -0.00451   0.00000  -0.00830  -0.00830   1.84438
    R3        2.66190  -0.00532   0.00000  -0.01137  -0.01137   2.65053
    R4        2.66269  -0.00262   0.00000  -0.00543  -0.00543   2.65726
    R5        2.66254  -0.00777   0.00000  -0.01668  -0.01667   2.64587
    R6        1.93275   0.05442   0.00000   0.11593   0.11593   2.04868
    R7        2.66190  -0.00532   0.00000  -0.01138  -0.01138   2.65053
    R8        1.93275   0.05442   0.00000   0.11593   0.11593   2.04868
    R9        2.56467   0.02153   0.00000   0.03806   0.03806   2.60272
   R10        2.66269  -0.00261   0.00000  -0.00543  -0.00543   2.65726
   R11        1.85269  -0.00452   0.00000  -0.00831  -0.00831   1.84438
   R12        2.66081  -0.00690   0.00000  -0.01434  -0.01434   2.64647
   R13        1.93222   0.05593   0.00000   0.11904   0.11904   2.05126
   R14        1.93222   0.05593   0.00000   0.11903   0.11903   2.05126
    A1        1.84938   0.01232   0.00000   0.06468   0.06468   1.91406
    A2        2.08599  -0.00701   0.00000  -0.02493  -0.02493   2.06106
    A3        2.11114   0.00785   0.00000   0.02804   0.02804   2.13918
    A4        2.08606  -0.00084   0.00000  -0.00311  -0.00311   2.08295
    A5        2.09846   0.00081   0.00000   0.00246   0.00247   2.10093
    A6        2.09475  -0.00107   0.00000  -0.00472  -0.00472   2.09003
    A7        2.08998   0.00026   0.00000   0.00225   0.00225   2.09223
    A8        2.09847   0.00081   0.00000   0.00246   0.00246   2.10093
    A9        2.08997   0.00026   0.00000   0.00226   0.00226   2.09223
   A10        2.09475  -0.00107   0.00000  -0.00472  -0.00472   2.09003
   A11        2.08598  -0.00701   0.00000  -0.02493  -0.02493   2.06106
   A12        2.08605  -0.00084   0.00000  -0.00311  -0.00311   2.08295
   A13        2.11115   0.00785   0.00000   0.02803   0.02803   2.13918
   A14        1.84937   0.01232   0.00000   0.06469   0.06469   1.91406
   A15        2.09867   0.00003   0.00000   0.00065   0.00064   2.09931
   A16        2.09429   0.00052   0.00000   0.00246   0.00246   2.09675
   A17        2.09023  -0.00054   0.00000  -0.00311  -0.00310   2.08712
   A18        2.09867   0.00003   0.00000   0.00065   0.00065   2.09931
   A19        2.09428   0.00052   0.00000   0.00246   0.00247   2.09675
   A20        2.09024  -0.00055   0.00000  -0.00311  -0.00311   2.08713
    D1        3.14159  -0.00000   0.00000  -0.00000  -0.00000   3.14159
    D2       -0.00000   0.00000   0.00000   0.00000   0.00000  -0.00000
    D3       -3.14159   0.00000   0.00000   0.00000   0.00000  -3.14159
    D4       -0.00001   0.00000   0.00000   0.00000   0.00000  -0.00000
    D5        0.00000  -0.00000   0.00000  -0.00000  -0.00000   0.00000
    D6        3.14159   0.00000   0.00000   0.00000   0.00000   3.14159
    D7       -3.14159  -0.00000   0.00000  -0.00000  -0.00000  -3.14159
    D8        0.00000  -0.00000   0.00000  -0.00000  -0.00000   0.00000
    D9       -0.00000  -0.00000   0.00000  -0.00000  -0.00000  -0.00000
   D10       -3.14159  -0.00000   0.00000  -0.00000  -0.00000  -3.14159
   D11       -0.00001   0.00000   0.00000   0.00000   0.00000  -0.00001
   D12       -3.14159  -0.00000   0.00000  -0.00000  -0.00000  -3.14159
   D13        3.14159   0.00000   0.00000   0.00000   0.00000   3.14159
   D14        0.00001  -0.00000   0.00000  -0.00000  -0.00000   0.00001
   D15        3.14159   0.00000   0.00000   0.00000   0.00000   3.14159
   D16        0.00001  -0.00000   0.00000  -0.00000  -0.00000   0.00001
   D17       -0.00002   0.00000   0.00000   0.00001   0.00001  -0.00001
   D18        3.14159   0.00000   0.00000   0.00000   0.00000   3.14159
   D19       -3.14159  -0.00000   0.00000  -0.00000  -0.00000  -3.14159
   D20       -0.00001   0.00000   0.00000   0.00000   0.00000  -0.00001
   D21       -0.00001   0.00000   0.00000   0.00000   0.00000  -0.00000
   D22        3.14159   0.00000   0.00000   0.00000   0.00000   3.14159
   D23       -3.14158  -0.00000   0.00000  -0.00000  -0.00000  -3.14159
   D24        0.00001  -0.00000   0.00000  -0.00000  -0.00000   0.00000
   D25        0.00000   0.00000   0.00000   0.00000   0.00000   0.00000
   D26        3.14159   0.00000   0.00000   0.00000   0.00000   3.14159
   D27       -3.14159  -0.00000   0.00000  -0.00000  -0.00000  -3.14159
   D28        0.00000  -0.00000   0.00000  -0.00000  -0.00000  -0.00000
         Item               Value     Threshold  Converged?
 Maximum Force            0.055933     0.000450     NO 
 RMS     Force            0.014950     0.000300     NO 
 Maximum Displacement     0.203538     0.001800     NO 
 RMS     Displacement     0.049772     0.001200     NO 
 Predicted change in Energy=-1.628775D-02
 Lowest energy point so far.  Saving SCF results.
 GradGradGradGradGradGradGradGradGradGradGradGradGradGradGradGradGradGrad

 Leave Link  103 at Mon Feb 22 21:17:57 2021, MaxMem=   104857600 cpu:               2.6 elap:               0.1
 (Enter /sw/arch/RedHatEnterpriseServer7/EB_production/2019/software/Gaussian/g16.c01/l202.exe)
                          Input orientation:                          
 ---------------------------------------------------------------------
 Center     Atomic      Atomic             Coordinates (Angstroms)
 Number     Number       Type             X           Y           Z
 ---------------------------------------------------------------------
      1          8           0        0.931234   -0.496791   -0.152300
      2          6           0        0.654980    0.617358    0.608831
      3          6           0        0.158436    1.755817   -0.042809
      4          6           0       -0.138593    2.914785    0.684477
      5          6           0        0.057033    2.950441    2.072908
      6          8           0       -0.250620    4.114620    2.741488
      7          6           0        0.554751    1.810188    2.728186
      8          6           0        0.851849    0.650959    2.000738
      9          1           0        1.267540   -1.211298    0.421252
     10          1           0        0.004146    1.737165   -1.115725
     11          1           0       -0.522015    3.790142    0.172578
     12          1           0       -0.069123    4.004138    3.694084
     13          1           0        0.711045    1.823629    3.802270
     14          1           0        1.235517   -0.222773    2.518093
 ---------------------------------------------------------------------
                    Distance matrix (angstroms):
                    1          2          3          4          5
     1  O    0.000000
     2  C    1.377304   0.000000
     3  C    2.383999   1.402597   0.000000
     4  C    3.672000   2.431800   1.400134   0.000000
     5  C    4.195138   2.818570   2.431802   1.402598   0.000000
     6  O    5.570987   4.195137   3.672000   2.383998   1.377303
     7  C    3.709595   2.434041   2.799720   2.424378   1.406161
     8  C    2.441148   1.406162   2.424379   2.799719   2.434041
     9  H    0.976004   1.937628   3.201444   4.367043   4.638250
    10  H    2.603506   2.156767   1.084114   2.155896   3.412068
    11  H    4.538202   3.412066   2.155895   1.084114   2.156768
    12  H    6.004477   4.638252   4.367046   3.201445   1.937628
    13  H    4.590365   3.414130   3.885178   3.410739   2.165209
    14  H    2.701605   2.165208   3.410739   3.885177   3.414132
                    6          7          8          9         10
     6  O    0.000000
     7  C    2.441148   0.000000
     8  C    3.709595   1.400450   0.000000
     9  H    6.004474   3.867737   2.477010   0.000000
    10  H    4.538203   3.883832   3.407460   3.556952   0.000000
    11  H    2.603505   3.407459   3.883831   5.317778   2.480178
    12  H    0.976006   2.477013   3.867740   6.300704   5.317780
    13  H    2.701611   1.085479   2.154181   4.577308   4.969291
    14  H    4.590369   2.154185   1.085479   2.318393   4.308395
                   11         12         13         14
    11  H    0.000000
    12  H    3.556952   0.000000
    13  H    4.308397   2.318402   0.000000
    14  H    4.969291   4.577315   2.472234   0.000000
 Stoichiometry    C6H6O2
 Framework group  C1[X(C6H6O2)]
 Deg. of freedom    36
 Full point group                 C1      NOp   1
 RotChk:  IX=0 Diff= 5.56D-07
 Largest Abelian subgroup         C1      NOp   1
 Largest concise Abelian subgroup C1      NOp   1
                         Standard orientation:                         
 ---------------------------------------------------------------------
 Center     Atomic      Atomic             Coordinates (Angstroms)
 Number     Number       Type             X           Y           Z
 ---------------------------------------------------------------------
      1          8           0        2.785494    0.070229   -0.000000
      2          6           0        1.409284    0.015334    0.000001
      3          6           0        0.700067    1.225412   -0.000001
      4          6           0       -0.700067    1.225411    0.000001
      5          6           0       -1.409285    0.015332   -0.000002
      6          8           0       -2.785493    0.070230    0.000001
      7          6           0       -0.700225   -1.198967   -0.000000
      8          6           0        0.700225   -1.198967   -0.000000
      9          1           0        3.150350   -0.835014    0.000002
     10          1           0        1.240089    2.165454    0.000002
     11          1           0       -1.240089    2.165454   -0.000003
     12          1           0       -3.150353   -0.835013   -0.000001
     13          1           0       -1.236114   -2.142941    0.000000
     14          1           0        1.236119   -2.142939    0.000001
 ---------------------------------------------------------------------
 Rotational constants (GHZ):           5.5662783           1.4623724           1.1581130
 Leave Link  202 at Mon Feb 22 21:17:57 2021, MaxMem=   104857600 cpu:               0.7 elap:               0.1
 (Enter /sw/arch/RedHatEnterpriseServer7/EB_production/2019/software/Gaussian/g16.c01/l301.exe)
 Standard basis: TZVP (5D, 7F)
 Ernie: Thresh=  0.10000D-02 Tol=  0.10000D-05 Strict=F.
 There are   196 symmetry adapted cartesian basis functions of A   symmetry.
 There are   188 symmetry adapted basis functions of A   symmetry.
   188 basis functions,   328 primitive gaussians,   196 cartesian basis functions
    29 alpha electrons       29 beta electrons
       nuclear repulsion energy       342.4140961640 Hartrees.
 IExCor=  404 DFT=T Ex=B Corr=P86 ExCW=0 ScaHFX=  0.000000
 ScaDFX=  1.000000  1.000000  1.000000  1.000000 ScalE2=  1.000000  1.000000
 IRadAn=      5 IRanWt=     -1 IRanGd=            0 ICorTp=0 IEmpDi=131
 NAtoms=   14 NActive=   14 NUniq=   14 SFac= 1.00D+00 NAtFMM=   60 NAOKFM=F Big=F
 Integral buffers will be    131072 words long.
 Raffenetti 2 integral format.
 Two-electron integral symmetry is turned on.
 R6Disp:  Grimme-D3 Dispersion energy=       -0.0092267220 Hartrees.
 Nuclear repulsion after empirical dispersion term =      342.4048694420 Hartrees.
 ------------------------------------------------------------------------------
 Polarizable Continuum Model (PCM)
 =================================
 Model                : PCM.
 Atomic radii         : UFF (Universal Force Field).
 Polarization charges : Total charges.
 Charge compensation  : None.
 Solution method      : On-the-fly selection.
 Cavity type          : Scaled VdW (van der Waals Surface) (Alpha=1.100).
 Cavity algorithm     : GePol (No added spheres)
                        Default sphere list used, NSphG=   14.
                        Lebedev-Laikov grids with approx.  5.0 points / Ang**2.
                        Smoothing algorithm: York/Karplus (Gamma=1.0000).
                        Polarization charges: spherical gaussians, with
                                              point-specific exponents (IZeta= 3).
                        Self-potential: point-specific (ISelfS= 7).
                        Self-field    : sphere-specific E.n sum rule (ISelfD= 2).
 1st derivatives      : Analytical E(r).r(x)/FMM algorithm (CHGder, D1EAlg=3).
                        Cavity 1st derivative terms included.
 Solvent              : Water, Eps=  78.355300 Eps(inf)=   1.777849
 ------------------------------------------------------------------------------
 Spheres list:
 ISph  on   Nord     Re0    Alpha      Xe            Ye            Ze
    1   O      1    1.7500  1.100      2.785494      0.070229     -0.000000
    2   C      2    1.9255  1.100      1.409284      0.015334      0.000001
    3   C      3    1.9255  1.100      0.700067      1.225412     -0.000001
    4   C      4    1.9255  1.100     -0.700067      1.225411      0.000001
    5   C      5    1.9255  1.100     -1.409285      0.015332     -0.000002
    6   O      6    1.7500  1.100     -2.785493      0.070230      0.000001
    7   C      7    1.9255  1.100     -0.700225     -1.198967     -0.000000
    8   C      8    1.9255  1.100      0.700225     -1.198967     -0.000000
    9   H      9    1.4430  1.100      3.150350     -0.835014      0.000002
   10   H     10    1.4430  1.100      1.240089      2.165454      0.000002
   11   H     11    1.4430  1.100     -1.240089      2.165454     -0.000003
   12   H     12    1.4430  1.100     -3.150353     -0.835013     -0.000001
   13   H     13    1.4430  1.100     -1.236114     -2.142941      0.000000
   14   H     14    1.4430  1.100      1.236119     -2.142939      0.000001
 ------------------------------------------------------------------------------
 GePol: Number of generator spheres                  =      14
 GePol: Total number of spheres                      =      14
 GePol: Number of exposed spheres                    =      14 (100.00%)
 GePol: Number of points                             =    1246
 GePol: Average weight of points                     =       0.13
 GePol: Minimum weight of points                     =   0.41D-07
 GePol: Maximum weight of points                     =    0.20577
 GePol: Number of points with low weight             =      64
 GePol: Fraction of low-weight points (<1% of avg)   =       5.14%
 GePol: Cavity surface area                          =    166.763 Ang**2
 GePol: Cavity volume                                =    160.350 Ang**3
 Leave Link  301 at Mon Feb 22 21:17:58 2021, MaxMem=   104857600 cpu:               1.8 elap:               0.1
 (Enter /sw/arch/RedHatEnterpriseServer7/EB_production/2019/software/Gaussian/g16.c01/l302.exe)
 NPDir=0 NMtPBC=     1 NCelOv=     1 NCel=       1 NClECP=     1 NCelD=      1
         NCelK=      1 NCelE2=     1 NClLst=     1 CellRange=     0.0.
 One-electron integrals computed using PRISM.
 One-electron integral symmetry used in STVInt
 PrsmSu:  requested number of processors reduced to:  29 ShMem   1 Linda.
 NBasis=   188 RedAO= T EigKep=  1.23D-05  NBF=   188
 NBsUse=   188 1.00D-06 EigRej= -1.00D+00 NBFU=   188
 Precomputing XC quadrature grid using
 IXCGrd= 4 IRadAn=           5 IRanWt=          -1 IRanGd=           0 AccXCQ= 0.00D+00.
 Generated NRdTot=       0 NPtTot=           0 NUsed=           0 NTot=          32
 NSgBfM=   193   193   193   193   193 MxSgAt=    14 MxSgA2=    14.
 Leave Link  302 at Mon Feb 22 21:17:58 2021, MaxMem=   104857600 cpu:               6.9 elap:               0.3
 (Enter /sw/arch/RedHatEnterpriseServer7/EB_production/2019/software/Gaussian/g16.c01/l303.exe)
 DipDrv:  MaxL=1.
 Leave Link  303 at Mon Feb 22 21:17:58 2021, MaxMem=   104857600 cpu:               0.8 elap:               0.1
 (Enter /sw/arch/RedHatEnterpriseServer7/EB_production/2019/software/Gaussian/g16.c01/l401.exe)
 Initial guess from the checkpoint file:  "QIGBRXMKCJKVMJ-UHFFFAOYSA-N.chk"
 B after Tr=    -0.000000    0.000000    0.000000
         Rot=    1.000000    0.000000   -0.000000    0.000000 Ang=   0.00 deg.
 Guess basis will be translated and rotated to current coordinates.
 JPrj=2 DoOrth=T DoCkMO=T.
 Generating alternative initial guess.
 ExpMin= 9.52D-02 ExpMax= 2.70D+04 ExpMxC= 9.22D+02 IAcc=3 IRadAn=         5 AccDes= 0.00D+00
 Harris functional with IExCor=  404 and IRadAn=       5 diagonalized for initial guess.
 HarFok:  IExCor=  404 AccDes= 0.00D+00 IRadAn=         5 IDoV= 1 UseB2=F ITyADJ=14
 ICtDFT=  3500011 ScaDFX=  1.000000  1.000000  1.000000  1.000000
 FoFCou: FMM=F IPFlag=           0 FMFlag=      100000 FMFlg1=           0
         NFxFlg=           0 DoJE=T BraDBF=F KetDBF=T FulRan=T
         wScrn=  0.000000 ICntrl=       500 IOpCl=  0 I1Cent=   200000004 NGrid=           0
         NMat0=    1 NMatS0=      1 NMatT0=    0 NMatD0=    1 NMtDS0=    0 NMtDT0=    0
 Petite list used in FoFCou.
 Harris En= -382.965298851706    
 Leave Link  401 at Mon Feb 22 21:17:59 2021, MaxMem=   104857600 cpu:              16.7 elap:               0.7
 (Enter /sw/arch/RedHatEnterpriseServer7/EB_production/2019/software/Gaussian/g16.c01/l502.exe)
 Integral symmetry usage will be decided dynamically.
 Closed shell SCF:
 Using DIIS extrapolation, IDIIS=  1040.
 NGot=   104857600 LenX=   104772142 LenY=   104733285
 Requested convergence on RMS density matrix=1.00D-08 within 128 cycles.
 Requested convergence on MAX density matrix=1.00D-06.
 Requested convergence on             energy=1.00D-06.
 No special actions if energy rises.
 Fock matrices will be formed incrementally for  20 cycles.

 Cycle   1  Pass 1  IDiag  1:
 FoFJK:  IHMeth= 1 ICntrl=     500 DoSepK=F KAlg= 0 I1Cent=           0 FoldK=F
 IRaf= 940000000 NMat=       1 IRICut=       1 DoRegI=T DoRafI=F ISym2E= 0 IDoP0=0 IntGTp=1.
 FoFCou: FMM=F IPFlag=           0 FMFlag=      100000 FMFlg1=           0
         NFxFlg=           0 DoJE=T BraDBF=F KetDBF=F FulRan=T
         wScrn=  0.000000 ICntrl=       500 IOpCl=  0 I1Cent=           0 NGrid=           0
         NMat0=    1 NMatS0=      1 NMatT0=    0 NMatD0=    1 NMtDS0=    0 NMtDT0=    0
 Symmetry not used in FoFCou.
 Inv3:  Mode=1 IEnd=     4657548.
 Iteration    1 A*A^-1 deviation from unit magnitude is 3.11D-15 for   1118.
 Iteration    1 A*A^-1 deviation from orthogonality  is 2.33D-15 for   1025    105.
 Iteration    1 A^-1*A deviation from unit magnitude is 2.89D-15 for   1118.
 Iteration    1 A^-1*A deviation from orthogonality  is 2.19D-15 for   1109    427.
 E= -382.840848073528    
 DIIS: error= 4.96D-03 at cycle   1 NSaved=   1.
 NSaved= 1 IEnMin= 1 EnMin= -382.840848073528     IErMin= 1 ErrMin= 4.96D-03
 ErrMax= 4.96D-03  0.00D+00 EMaxC= 1.00D-01 BMatC= 4.70D-03 BMatP= 4.70D-03
 IDIUse=3 WtCom= 9.50D-01 WtEn= 4.96D-02
 Coeff-Com:  0.100D+01
 Coeff-En:   0.100D+01
 Coeff:      0.100D+01
 Gap=     0.597 Goal=   None    Shift=    0.000
 GapD=    0.597 DampG=2.000 DampE=1.000 DampFc=2.0000 IDamp=-1.
 RMSDP=1.01D-03 MaxDP=2.03D-02              OVMax= 1.84D-02

 Cycle   2  Pass 1  IDiag  1:
 RMSU=  1.00D-03    CP:  9.91D-01
 E= -382.845423182038     Delta-E=       -0.004575108510 Rises=F Damp=F
 DIIS: error= 1.89D-03 at cycle   2 NSaved=   2.
 NSaved= 2 IEnMin= 2 EnMin= -382.845423182038     IErMin= 2 ErrMin= 1.89D-03
 ErrMax= 1.89D-03  0.00D+00 EMaxC= 1.00D-01 BMatC= 4.11D-04 BMatP= 4.70D-03
 IDIUse=3 WtCom= 9.81D-01 WtEn= 1.89D-02
 Coeff-Com:  0.146D+00 0.854D+00
 Coeff-En:   0.000D+00 0.100D+01
 Coeff:      0.143D+00 0.857D+00
 Gap=     0.134 Goal=   None    Shift=    0.000
 RMSDP=2.40D-04 MaxDP=6.66D-03 DE=-4.58D-03 OVMax= 9.94D-03

 Cycle   3  Pass 1  IDiag  1:
 RMSU=  2.27D-04    CP:  9.89D-01  1.07D+00
 E= -382.845409193511     Delta-E=        0.000013988527 Rises=F Damp=F
 DIIS: error= 2.19D-03 at cycle   3 NSaved=   3.
 NSaved= 3 IEnMin= 2 EnMin= -382.845423182038     IErMin= 2 ErrMin= 1.89D-03
 ErrMax= 2.19D-03  0.00D+00 EMaxC= 1.00D-01 BMatC= 4.76D-04 BMatP= 4.11D-04
 IDIUse=3 WtCom= 1.76D-01 WtEn= 8.24D-01
 Coeff-Com:  0.358D-01 0.516D+00 0.448D+00
 Coeff-En:   0.000D+00 0.508D+00 0.492D+00
 Coeff:      0.631D-02 0.510D+00 0.484D+00
 Gap=     0.135 Goal=   None    Shift=    0.000
 RMSDP=1.31D-04 MaxDP=5.50D-03 DE= 1.40D-05 OVMax= 6.60D-03

 Cycle   4  Pass 1  IDiag  1:
 RMSU=  7.41D-05    CP:  9.91D-01  1.03D+00  5.75D-01
 E= -382.845792882740     Delta-E=       -0.000383689229 Rises=F Damp=F
 DIIS: error= 4.80D-04 at cycle   4 NSaved=   4.
 NSaved= 4 IEnMin= 4 EnMin= -382.845792882740     IErMin= 4 ErrMin= 4.80D-04
 ErrMax= 4.80D-04  0.00D+00 EMaxC= 1.00D-01 BMatC= 3.09D-05 BMatP= 4.11D-04
 IDIUse=3 WtCom= 9.95D-01 WtEn= 4.80D-03
 Coeff-Com:  0.226D-02 0.185D+00 0.256D+00 0.556D+00
 Coeff-En:   0.000D+00 0.000D+00 0.000D+00 0.100D+01
 Coeff:      0.225D-02 0.184D+00 0.255D+00 0.558D+00
 Gap=     0.135 Goal=   None    Shift=    0.000
 RMSDP=3.64D-05 MaxDP=1.16D-03 DE=-3.84D-04 OVMax= 1.62D-03

 Cycle   5  Pass 1  IDiag  1:
 RMSU=  1.73D-05    CP:  9.91D-01  1.03D+00  5.74D-01  5.79D-01
 E= -382.845819153977     Delta-E=       -0.000026271237 Rises=F Damp=F
 DIIS: error= 7.83D-05 at cycle   5 NSaved=   5.
 NSaved= 5 IEnMin= 5 EnMin= -382.845819153977     IErMin= 5 ErrMin= 7.83D-05
 ErrMax= 7.83D-05  0.00D+00 EMaxC= 1.00D-01 BMatC= 8.12D-07 BMatP= 3.09D-05
 IDIUse=1 WtCom= 1.00D+00 WtEn= 0.00D+00
 Coeff-Com: -0.110D-03 0.716D-01 0.105D+00 0.262D+00 0.562D+00
 Coeff:     -0.110D-03 0.716D-01 0.105D+00 0.262D+00 0.562D+00
 Gap=     0.135 Goal=   None    Shift=    0.000
 RMSDP=8.62D-06 MaxDP=2.53D-04 DE=-2.63D-05 OVMax= 2.92D-04

 Cycle   6  Pass 1  IDiag  1:
 RMSU=  5.53D-06    CP:  9.91D-01  1.03D+00  5.74D-01  6.30D-01  7.45D-01
 E= -382.845819685009     Delta-E=       -0.000000531032 Rises=F Damp=F
 DIIS: error= 3.97D-05 at cycle   6 NSaved=   6.
 NSaved= 6 IEnMin= 6 EnMin= -382.845819685009     IErMin= 6 ErrMin= 3.97D-05
 ErrMax= 3.97D-05  0.00D+00 EMaxC= 1.00D-01 BMatC= 1.99D-07 BMatP= 8.12D-07
 IDIUse=1 WtCom= 1.00D+00 WtEn= 0.00D+00
 Coeff-Com: -0.236D-03 0.247D-01 0.393D-01 0.108D+00 0.362D+00 0.467D+00
 Coeff:     -0.236D-03 0.247D-01 0.393D-01 0.108D+00 0.362D+00 0.467D+00
 Gap=     0.135 Goal=   None    Shift=    0.000
 RMSDP=4.06D-06 MaxDP=2.03D-04 DE=-5.31D-07 OVMax= 1.42D-04

 Cycle   7  Pass 1  IDiag  1:
 RMSU=  2.43D-06    CP:  9.91D-01  1.03D+00  5.78D-01  6.08D-01  7.55D-01
                    CP:  6.75D-01
 E= -382.845819846555     Delta-E=       -0.000000161546 Rises=F Damp=F
 DIIS: error= 1.11D-05 at cycle   7 NSaved=   7.
 NSaved= 7 IEnMin= 7 EnMin= -382.845819846555     IErMin= 7 ErrMin= 1.11D-05
 ErrMax= 1.11D-05  0.00D+00 EMaxC= 1.00D-01 BMatC= 1.78D-08 BMatP= 1.99D-07
 IDIUse=1 WtCom= 1.00D+00 WtEn= 0.00D+00
 Coeff-Com: -0.153D-03 0.851D-02 0.142D-01 0.412D-01 0.172D+00 0.292D+00
 Coeff-Com:  0.472D+00
 Coeff:     -0.153D-03 0.851D-02 0.142D-01 0.412D-01 0.172D+00 0.292D+00
 Coeff:      0.472D+00
 Gap=     0.135 Goal=   None    Shift=    0.000
 RMSDP=1.86D-06 MaxDP=9.85D-05 DE=-1.62D-07 OVMax= 3.68D-05

 Cycle   8  Pass 1  IDiag  1:
 RMSU=  8.03D-07    CP:  9.91D-01  1.03D+00  5.75D-01  6.15D-01  7.74D-01
                    CP:  7.58D-01  6.45D-01
 E= -382.845819861189     Delta-E=       -0.000000014634 Rises=F Damp=F
 DIIS: error= 1.48D-06 at cycle   8 NSaved=   8.
 NSaved= 8 IEnMin= 8 EnMin= -382.845819861189     IErMin= 8 ErrMin= 1.48D-06
 ErrMax= 1.48D-06  0.00D+00 EMaxC= 1.00D-01 BMatC= 3.86D-10 BMatP= 1.78D-08
 IDIUse=1 WtCom= 1.00D+00 WtEn= 0.00D+00
 Coeff-Com: -0.390D-04 0.742D-03 0.150D-02 0.492D-02 0.274D-01 0.673D-01
 Coeff-Com:  0.172D+00 0.726D+00
 Coeff:     -0.390D-04 0.742D-03 0.150D-02 0.492D-02 0.274D-01 0.673D-01
 Coeff:      0.172D+00 0.726D+00
 Gap=     0.135 Goal=   None    Shift=    0.000
 RMSDP=1.79D-07 MaxDP=5.54D-06 DE=-1.46D-08 OVMax= 6.57D-06

 Cycle   9  Pass 1  IDiag  1:
 RMSU=  1.01D-07    CP:  9.91D-01  1.03D+00  5.75D-01  6.15D-01  7.75D-01
                    CP:  7.69D-01  6.83D-01  9.18D-01
 E= -382.845819861509     Delta-E=       -0.000000000320 Rises=F Damp=F
 DIIS: error= 5.36D-07 at cycle   9 NSaved=   9.
 NSaved= 9 IEnMin= 9 EnMin= -382.845819861509     IErMin= 9 ErrMin= 5.36D-07
 ErrMax= 5.36D-07  0.00D+00 EMaxC= 1.00D-01 BMatC= 2.55D-11 BMatP= 3.86D-10
 IDIUse=1 WtCom= 1.00D+00 WtEn= 0.00D+00
 Coeff-Com: -0.138D-04 0.167D-03 0.417D-03 0.145D-02 0.936D-02 0.256D-01
 Coeff-Com:  0.730D-01 0.337D+00 0.553D+00
 Coeff:     -0.138D-04 0.167D-03 0.417D-03 0.145D-02 0.936D-02 0.256D-01
 Coeff:      0.730D-01 0.337D+00 0.553D+00
 Gap=     0.135 Goal=   None    Shift=    0.000
 RMSDP=5.09D-08 MaxDP=8.34D-07 DE=-3.20D-10 OVMax= 5.75D-06

 Cycle  10  Pass 1  IDiag  1:
 RMSU=  3.95D-08    CP:  9.91D-01  1.03D+00  5.75D-01  6.15D-01  7.75D-01
                    CP:  7.72D-01  6.90D-01  9.19D-01  8.28D-01
 E= -382.845819861516     Delta-E=       -0.000000000007 Rises=F Damp=F
 DIIS: error= 5.07D-07 at cycle  10 NSaved=  10.
 NSaved=10 IEnMin=10 EnMin= -382.845819861516     IErMin=10 ErrMin= 5.07D-07
 ErrMax= 5.07D-07  0.00D+00 EMaxC= 1.00D-01 BMatC= 1.85D-11 BMatP= 2.55D-11
 IDIUse=1 WtCom= 1.00D+00 WtEn= 0.00D+00
 Coeff-Com:  0.331D-06-0.856D-04-0.103D-03-0.277D-03-0.242D-03 0.182D-02
 Coeff-Com:  0.123D-01 0.734D-01 0.448D+00 0.465D+00
 Coeff:      0.331D-06-0.856D-04-0.103D-03-0.277D-03-0.242D-03 0.182D-02
 Coeff:      0.123D-01 0.734D-01 0.448D+00 0.465D+00
 Gap=     0.135 Goal=   None    Shift=    0.000
 RMSDP=2.97D-08 MaxDP=1.11D-06 DE=-6.99D-12 OVMax= 2.70D-06

 Cycle  11  Pass 1  IDiag  1:
 RMSU=  7.05D-09    CP:  9.91D-01  1.03D+00  5.75D-01  6.15D-01  7.76D-01
                    CP:  7.73D-01  6.89D-01  9.30D-01  9.07D-01  5.30D-01
 E= -382.845819861539     Delta-E=       -0.000000000023 Rises=F Damp=F
 DIIS: error= 2.17D-08 at cycle  11 NSaved=  11.
 NSaved=11 IEnMin=11 EnMin= -382.845819861539     IErMin=11 ErrMin= 2.17D-08
 ErrMax= 2.17D-08  0.00D+00 EMaxC= 1.00D-01 BMatC= 8.34D-14 BMatP= 1.85D-11
 IDIUse=1 WtCom= 1.00D+00 WtEn= 0.00D+00
 Coeff-Com:  0.228D-06-0.302D-04-0.428D-04-0.128D-03-0.415D-03-0.603D-03
 Coeff-Com:  0.101D-02 0.466D-02 0.102D+00 0.132D+00 0.761D+00
 Coeff:      0.228D-06-0.302D-04-0.428D-04-0.128D-03-0.415D-03-0.603D-03
 Coeff:      0.101D-02 0.466D-02 0.102D+00 0.132D+00 0.761D+00
 Gap=     0.135 Goal=   None    Shift=    0.000
 RMSDP=5.56D-09 MaxDP=2.39D-07 DE=-2.28D-11 OVMax= 9.70D-08

 Error on total polarization charges =  0.01176
 SCF Done:  E(RB-P86) =  -382.845819862     A.U. after   11 cycles
            NFock= 11  Conv=0.56D-08     -V/T= 2.0044
 KE= 3.811666539556D+02 PE=-1.579786084214D+03 EE= 4.733687409544D+02
 Leave Link  502 at Mon Feb 22 21:18:05 2021, MaxMem=   104857600 cpu:             206.5 elap:               6.6
 (Enter /sw/arch/RedHatEnterpriseServer7/EB_production/2019/software/Gaussian/g16.c01/l701.exe)
 ... and contract with generalized density number  0.
 Compute integral first derivatives.
 R6Disp: Adding Grimme-D3 dispersion energy 1st derivatives to the gradient.
 PrsmSu:  requested number of processors reduced to:  29 ShMem   1 Linda.
 D1PCM: PCM CHGder 1st derivatives, ID1Alg=3 FixD1E=F DoIter=F DoCFld=F I1PDM=0.
 GePol: Maximum number of non-zero 1st derivatives   =     188
 CoulSu:  requested number of processors reduced to:  29 ShMem   1 Linda.
 CoulSu:  requested number of processors reduced to:  30 ShMem   1 Linda.
 Leave Link  701 at Mon Feb 22 21:18:06 2021, MaxMem=   104857600 cpu:              15.7 elap:               0.5
 (Enter /sw/arch/RedHatEnterpriseServer7/EB_production/2019/software/Gaussian/g16.c01/l702.exe)
 L702 exits ... SP integral derivatives will be done elsewhere.
 Leave Link  702 at Mon Feb 22 21:18:06 2021, MaxMem=   104857600 cpu:               0.6 elap:               0.0
 (Enter /sw/arch/RedHatEnterpriseServer7/EB_production/2019/software/Gaussian/g16.c01/l703.exe)
 Integral derivatives from FoFJK, PRISM(SPDF).
 Compute integral first derivatives, UseDBF=F ICtDFT=           0.
 Calling FoFJK, ICntrl=      2527 FMM=F ISym2X=0 I1Cent= 0 IOpClX= 0 NMat=1 NMatS=1 NMatT=0.
 FoFJK:  IHMeth= 1 ICntrl=    2527 DoSepK=F KAlg= 0 I1Cent=           0 FoldK=F
 IRaf=         0 NMat=       1 IRICut=       1 DoRegI=T DoRafI=F ISym2E= 0 IDoP0=0 IntGTp=1.
 FoFCou: FMM=F IPFlag=           0 FMFlag=      100000 FMFlg1=         800
         NFxFlg=           0 DoJE=F BraDBF=F KetDBF=F FulRan=T
         wScrn=  0.000000 ICntrl=      2527 IOpCl=  0 I1Cent=           0 NGrid=           0
         NMat0=    1 NMatS0=      1 NMatT0=    0 NMatD0=    1 NMtDS0=    0 NMtDT0=    0
 Symmetry not used in FoFCou.
 Leave Link  703 at Mon Feb 22 21:18:07 2021, MaxMem=   104857600 cpu:              28.1 elap:               0.9
 (Enter /sw/arch/RedHatEnterpriseServer7/EB_production/2019/software/Gaussian/g16.c01/l716.exe)
 Dipole        =-6.47395628D-06-1.40999496D+00-2.67332281D-07
 ***** Axes restored to original set *****
 -------------------------------------------------------------------
 Center     Atomic                   Forces (Hartrees/Bohr)
 Number     Number              X              Y              Z
 -------------------------------------------------------------------
      1        8           0.000396818   -0.002352786   -0.002852481
      2        6           0.000266197    0.001643014    0.005616911
      3        6           0.000299423    0.001571041    0.005668202
      4        6           0.002072553   -0.005350535    0.001324151
      5        6           0.002057747   -0.005345501    0.001230143
      6        8          -0.001094085    0.003464063    0.000798992
      7        6          -0.001240796    0.000554108   -0.006982866
      8        6          -0.002473793    0.005363882   -0.003965846
      9        1          -0.000486601    0.001295823   -0.000217428
     10        1          -0.000460462   -0.000762251   -0.004852967
     11        1          -0.001755976    0.004293806   -0.001679876
[...]
    13  H    4.602857   3.416475   3.890682   3.416953   2.168267
    14  H    2.714522   2.168267   3.416953   3.890682   3.416475
                    6          7          8          9         10
     6  O    0.000000
     7  C    2.447519   0.000000
     8  C    3.713811   1.400328   0.000000
     9  H    6.006603   3.871108   2.481214   0.000000
    10  H    4.542713   3.889109   3.409044   3.540696   0.000000
    11  H    2.587720   3.409044   3.889109   5.320850   2.501973
    12  H    0.974935   2.481214   3.871108   6.304992   5.320850
    13  H    2.714522   1.093185   2.160533   4.588888   4.982259
    14  H    4.602856   2.160533   1.093185   2.328382   4.314852
                   11         12         13         14
    11  H    0.000000
    12  H    3.540696   0.000000
    13  H    4.314852   2.328382   0.000000
    14  H    4.982259   4.588888   2.480024   0.000000
 Stoichiometry    C6H6O2
 Framework group  C1[X(C6H6O2)]
 Deg. of freedom    36
 Full point group                 C1      NOp   1
 Largest Abelian subgroup         C1      NOp   1
 Largest concise Abelian subgroup C1      NOp   1
                         Standard orientation:                         
 ---------------------------------------------------------------------
 Center     Atomic      Atomic             Coordinates (Angstroms)
 Number     Number       Type             X           Y           Z
 ---------------------------------------------------------------------
      1          8           0        2.785791    0.079290   -0.000000
      2          6           0        1.405413    0.009828    0.000000
      3          6           0        0.697944    1.221561   -0.000000
      4          6           0       -0.697944    1.221561    0.000000
      5          6           0       -1.405413    0.009828    0.000000
      6          8           0       -2.785791    0.079290   -0.000000
      7          6           0       -0.700164   -1.201533    0.000000
      8          6           0        0.700164   -1.201533   -0.000000
      9          1           0        3.152496   -0.824052    0.000001
     10          1           0        1.250986    2.162717   -0.000000
     11          1           0       -1.250986    2.162717   -0.000000
     12          1           0       -3.152496   -0.824052   -0.000001
     13          1           0       -1.240012   -2.152121    0.000000
     14          1           0        1.240012   -2.152121   -0.000000
 ---------------------------------------------------------------------
 Rotational constants (GHZ):           5.5674684           1.4631361           1.1586435
 Standard basis: TZVP (5D, 7F)
 There are   196 symmetry adapted cartesian basis functions of A   symmetry.
 There are   188 symmetry adapted basis functions of A   symmetry.
   188 basis functions,   328 primitive gaussians,   196 cartesian basis functions
    29 alpha electrons       29 beta electrons
       nuclear repulsion energy       342.3839338151 Hartrees.
 NAtoms=   14 NActive=   14 NUniq=   14 SFac= 1.00D+00 NAtFMM=   60 NAOKFM=F Big=F
 Integral buffers will be    131072 words long.
 Raffenetti 2 integral format.
 Two-electron integral symmetry is turned on.
 Warning! Using old PCM defaults because the COSMOthermo output has been requested.
 These settings can be overridden by following keywords.
 ------------------------------------------------------------------------------
 Polarizable Continuum Model (PCM)
 =================================
 Model                : C-PCM.
 Atomic radii         : Klamt.
 XCosmo               : -1.000 (infinite dielectric limit)
 Polarization charges : Electronic and nuclear charges.
 Charge compensation  : Type 3 (Electronic density weighted correction).
 Solution method      : On-the-fly selection.
 Cavity type          : VdW (van der Waals Surface) (Alpha=1.000).
 Cavity algorithm     : GePol (No added spheres)
                        Default sphere list used, NSphG=   14.
                        Tesserae with average area of 0.200 Ang**2.
                        Smoothing algorithm: None.
                        Polarization charges: point-like.
                        Self-potential: constant (ISelfS= 1).
                        Self-field    : global E.n sum rule (ISelfD= 3).
 Solvent              : Water, Eps=  78.355300 Eps(inf)=   1.777849
 ------------------------------------------------------------------------------
 Spheres list:
 ISph  on   Nord     Re0    Alpha      Xe            Ye            Ze
    1   O      1    1.7200  1.000      2.785791      0.079290     -0.000000
    2   C      2    2.0000  1.000      1.405413      0.009828      0.000000
    3   C      3    2.0000  1.000      0.697944      1.221561     -0.000000
    4   C      4    2.0000  1.000     -0.697944      1.221561      0.000000
    5   C      5    2.0000  1.000     -1.405413      0.009828      0.000000
    6   O      6    1.7200  1.000     -2.785791      0.079290     -0.000000
    7   C      7    2.0000  1.000     -0.700164     -1.201533      0.000000
    8   C      8    2.0000  1.000      0.700164     -1.201533     -0.000000
    9   H      9    1.3000  1.000      3.152496     -0.824052      0.000001
   10   H     10    1.3000  1.000      1.250986      2.162717     -0.000000
   11   H     11    1.3000  1.000     -1.250986      2.162717     -0.000000
   12   H     12    1.3000  1.000     -3.152496     -0.824052     -0.000001
   13   H     13    1.3000  1.000     -1.240012     -2.152121      0.000000
   14   H     14    1.3000  1.000      1.240012     -2.152121     -0.000000
 ------------------------------------------------------------------------------
 One-electron integrals computed using PRISM.
 PrsmSu:  requested number of processors reduced to:  29 ShMem   1 Linda.
 NBasis=   188 RedAO= T EigKep=  1.22D-05  NBF=   188
 NBsUse=   188 1.00D-06 EigRej= -1.00D+00 NBFU=   188
 Initial guess from the checkpoint file:  "QIGBRXMKCJKVMJ-UHFFFAOYSA-N.chk"
 B after Tr=     0.000000   -0.000000   -0.000000
         Rot=    1.000000    0.000000    0.000000    0.000000 Ang=   0.00 deg.
 Requested convergence on RMS density matrix=1.00D-08 within 128 cycles.
 Requested convergence on MAX density matrix=1.00D-06.
 Requested convergence on             energy=1.00D-06.
 No special actions if energy rises.
 Inv3:  Mode=1 IEnd=     3244800.
 Iteration    1 A*A^-1 deviation from unit magnitude is 5.33D-15 for     13.
 Iteration    1 A*A^-1 deviation from orthogonality  is 2.66D-15 for    800     13.
 Iteration    1 A^-1*A deviation from unit magnitude is 5.33D-15 for    800.
 Iteration    1 A^-1*A deviation from orthogonality  is 4.89D-15 for    524    148.
 Error on nuclear    polarization charges =  0.02643
 Error on electronic polarization charges = -0.05198
 SCF Done:  E(RB-P86) =  -382.844385538     A.U. after   10 cycles
            NFock= 10  Conv=0.70D-08     -V/T= 2.0045
 --------------------------------------------------------------------
 Variational C-PCM results
 =========================
 <psi(f)|   H    |psi(f)>                     (a.u.) =    -382.822747
 <psi(f)|H+V(f)/2|psi(f)>                     (a.u.) =    -382.844386
 Total free energy in solution:
 - with all non electrostatic terms           (a.u.) =    -382.835523
 --------------------------------------------------------------------
 (Polarized solute)-Solvent               (kcal/mol) =     -13.58
 --------------------------------------------------------------------
 Cavitation energy                        (kcal/mol) =      18.18
 Dispersion energy                        (kcal/mol) =     -13.76
 Repulsion energy                         (kcal/mol) =       1.15
 Total non electrostatic                  (kcal/mol) =       5.56
 --------------------------------------------------------------------
 Partition over spheres:
 Sphere  on Atom  Surface  Charge   GEl     GCav    GDR
    1      O1      16.23   0.142   -1.99    2.02   -1.49
    2      C2       7.94   0.023   -0.25    0.93   -0.53
    3      C3      13.63   0.039   -0.39    1.60   -0.99
    4      C4      13.63   0.039   -0.39    1.60   -0.99
    5      C5       7.94   0.023   -0.25    0.93   -0.53
    6      O6      16.23   0.142   -1.99    2.02   -1.49
    7      C7      13.37   0.023   -0.45    1.57   -1.00
    8      C8      13.37   0.023   -0.45    1.57   -1.00
    9      H9       8.13  -0.137   -2.87    1.15   -0.81
   10      H10      6.43  -0.043   -0.09    0.91   -0.76
   11      H11      6.43  -0.043   -0.09    0.91   -0.76
   12      H12      8.13  -0.137   -2.87    1.15   -0.81
   13      H13      6.45  -0.047   -0.74    0.91   -0.72
   14      H14      6.45  -0.047   -0.74    0.91   -0.72
 --------------------------------------------------------------------
 - cavitation energy not included in the total energy.
 - dispersion energy not included in the total energy.
 - repulsion  energy not included in the total energy.
 After PCM corrections, the energy is  -382.844385538     a.u.
 --------------------------------------------------------------------
 Writing COSMO formatted file "QIGBRXMKCJKVMJ-UHFFFAOYSA-N.cosmo"
 Recomputed dielectric energy= -0.021711 old= -0.021638 diff=-7.27D-05

 **********************************************************************

            Population analysis using the SCF Density.

 **********************************************************************

 Orbital symmetries:
       Occupied  (A) (A) (A) (A) (A) (A) (A) (A) (A) (A) (A) (A)
                 (A) (A) (A) (A) (A) (A) (A) (A) (A) (A) (A) (A)
                 (A) (A) (A) (A) (A)
       Virtual   (A) (A) (A) (A) (A) (A) (A) (A) (A) (A) (A) (A)
                 (A) (A) (A) (A) (A) (A) (A) (A) (A) (A) (A) (A)
                 (A) (A) (A) (A) (A) (A) (A) (A) (A) (A) (A) (A)
                 (A) (A) (A) (A) (A) (A) (A) (A) (A) (A) (A) (A)
                 (A) (A) (A) (A) (A) (A) (A) (A) (A) (A) (A) (A)
                 (A) (A) (A) (A) (A) (A) (A) (A) (A) (A) (A) (A)
                 (A) (A) (A) (A) (A) (A) (A) (A) (A) (A) (A) (A)
                 (A) (A) (A) (A) (A) (A) (A) (A) (A) (A) (A) (A)
                 (A) (A) (A) (A) (A) (A) (A) (A) (A) (A) (A) (A)
                 (A) (A) (A) (A) (A) (A) (A) (A) (A) (A) (A) (A)
                 (A) (A) (A) (A) (A) (A) (A) (A) (A) (A) (A) (A)
                 (A) (A) (A) (A) (A) (A) (A) (A) (A) (A) (A) (A)
                 (A) (A) (A) (A) (A) (A) (A) (A) (A) (A) (A) (A)
                 (A) (A) (A)
 The electronic state is 1-A.
 Alpha  occ. eigenvalues --  -18.79937 -18.79937  -9.95959  -9.95958  -9.90676
 Alpha  occ. eigenvalues --   -9.90641  -9.90441  -9.90406  -0.97233  -0.97136
 Alpha  occ. eigenvalues --   -0.77926  -0.68706  -0.67013  -0.57285  -0.56221
 Alpha  occ. eigenvalues --   -0.50050  -0.48525  -0.44508  -0.40149  -0.38259
 Alpha  occ. eigenvalues --   -0.37703  -0.36833  -0.36242  -0.34790  -0.32403
 Alpha  occ. eigenvalues --   -0.30228  -0.27490  -0.23904  -0.18759
 Alpha virt. eigenvalues --   -0.05120  -0.02217   0.02950   0.03601   0.04578
 Alpha virt. eigenvalues --    0.07664   0.10135   0.10540   0.10729   0.11388
 Alpha virt. eigenvalues --    0.14974   0.15751   0.18014   0.18035   0.20332
 Alpha virt. eigenvalues --    0.20350   0.22220   0.23962   0.24006   0.24510
 Alpha virt. eigenvalues --    0.25330   0.28849   0.29808   0.29985   0.30700
 Alpha virt. eigenvalues --    0.30819   0.33675   0.34192   0.34966   0.36218
 Alpha virt. eigenvalues --    0.38393   0.40741   0.41027   0.42531   0.43331
 Alpha virt. eigenvalues --    0.44036   0.45494   0.45788   0.47016   0.47184
 Alpha virt. eigenvalues --    0.49669   0.50880   0.52790   0.56019   0.60367
 Alpha virt. eigenvalues --    0.60727   0.63396   0.64525   0.66440   0.66856
 Alpha virt. eigenvalues --    0.71176   0.77409   0.81901   0.81925   0.87235
 Alpha virt. eigenvalues --    1.07121   1.14771   1.16771   1.17468   1.17803
 Alpha virt. eigenvalues --    1.19782   1.22168   1.26569   1.26917   1.28019
 Alpha virt. eigenvalues --    1.28973   1.30941   1.33015   1.35760   1.35877
 Alpha virt. eigenvalues --    1.36714   1.37081   1.38053   1.38532   1.39966
 Alpha virt. eigenvalues --    1.41658   1.43762   1.45231   1.46275   1.46865
 Alpha virt. eigenvalues --    1.47263   1.47747   1.49940   1.56699   1.66853
 Alpha virt. eigenvalues --    1.68952   1.70121   1.70462   1.72903   1.74973
 Alpha virt. eigenvalues --    1.76768   1.79227   1.81935   1.82149   1.84753
 Alpha virt. eigenvalues --    1.90823   1.92833   1.93091   1.93596   1.97688
 Alpha virt. eigenvalues --    2.06792   2.11687   2.12117   2.12753   2.17770
 Alpha virt. eigenvalues --    2.20236   2.20572   2.20939   2.22911   2.24334
 Alpha virt. eigenvalues --    2.27632   2.29393   2.31220   2.40212   2.40265
 Alpha virt. eigenvalues --    2.45802   2.48187   2.50368   2.50875   2.55458
 Alpha virt. eigenvalues --    2.55669   2.56383   2.58635   2.63928   2.69587
 Alpha virt. eigenvalues --    2.70407   2.80263   2.82410   2.84078   2.87460
 Alpha virt. eigenvalues --    2.87791   2.89589   2.90639   2.94468   2.96519
 Alpha virt. eigenvalues --    2.98927   3.01480   3.04803   3.06532   3.13531
 Alpha virt. eigenvalues --    3.14709   3.17434   3.23649   3.24354   3.28061
 Alpha virt. eigenvalues --    3.44898   3.46460   3.84261   3.99575   4.17313
 Alpha virt. eigenvalues --    4.22003  21.05762  21.56416  21.60545  21.79131
 Alpha virt. eigenvalues --   21.79429  21.93876  43.12306  43.16481
          Condensed to atoms (all electrons):
               1          2          3          4          5          6
     1  O    7.826742   0.361346  -0.075036   0.007050  -0.000819   0.000003
     2  C    0.361346   5.107381   0.382317   0.004643  -0.135978  -0.000819
     3  C   -0.075036   0.382317   5.205254   0.425265   0.004639   0.007050
     4  C    0.007050   0.004643   0.425265   5.205240   0.382324  -0.075038
     5  C   -0.000819  -0.135978   0.004639   0.382324   5.107372   0.361344
     6  O    0.000003  -0.000819   0.007050  -0.075038   0.361344   7.826749
     7  C    0.018841   0.144570  -0.063059  -0.072644   0.175803  -0.110127
     8  C   -0.110126   0.175793  -0.072641  -0.063057   0.144567   0.018841
     9  H    0.308234  -0.024732   0.010641  -0.001058  -0.000221  -0.000000
    10  H    0.004749  -0.089087   0.442929  -0.055704   0.021910  -0.000116
    11  H   -0.000116   0.021911  -0.055710   0.442934  -0.089085   0.004749
    12  H   -0.000000  -0.000221  -0.001058   0.010641  -0.024734   0.308234
    13  H   -0.000113   0.007475   0.001366   0.006695  -0.053509  -0.005694
    14  H   -0.005694  -0.053509   0.006695   0.001366   0.007475  -0.000113
               7          8          9         10         11         12
     1  O    0.018841  -0.110126   0.308234   0.004749  -0.000116  -0.000000
     2  C    0.144570   0.175793  -0.024732  -0.089087   0.021911  -0.000221
     3  C   -0.063059  -0.072641   0.010641   0.442929  -0.055710  -0.001058
     4  C   -0.072644  -0.063057  -0.001058  -0.055704   0.442934   0.010641
     5  C    0.175803   0.144567  -0.000221   0.021910  -0.089085  -0.024734
     6  O   -0.110127   0.018841  -0.000000  -0.000116   0.004749   0.308234
     7  C    5.873322  -0.155113   0.004596  -0.006823   0.020724  -0.023260
     8  C   -0.155113   5.873330  -0.023260   0.020724  -0.006823   0.004596
     9  H    0.004596  -0.023260   0.398417  -0.000726   0.000023   0.000000
    10  H   -0.006823   0.020724  -0.000726   0.518208  -0.009953   0.000023
    11  H    0.020724  -0.006823   0.000023  -0.009953   0.518209  -0.000726
    12  H   -0.023260   0.004596   0.000000   0.000023  -0.000726   0.398419
    13  H    0.411895  -0.026494  -0.000053   0.000023  -0.000192   0.000710
    14  H   -0.026494   0.411895   0.000710  -0.000192   0.000023  -0.000053
              13         14
     1  O   -0.000113  -0.005694
     2  C    0.007475  -0.053509
     3  C    0.001366   0.006695
     4  C    0.006695   0.001366
     5  C   -0.053509   0.007475
     6  O   -0.005694  -0.000113
     7  C    0.411895  -0.026494
     8  C   -0.026494   0.411895
     9  H   -0.000053   0.000710
    10  H    0.000023  -0.000192
    11  H   -0.000192   0.000023
    12  H    0.000710  -0.000053
    13  H    0.496947  -0.004629
    14  H   -0.004629   0.496946
 Mulliken charges:
               1
     1  O   -0.335060
     2  C    0.098911
     3  C   -0.218652
     4  C   -0.218657
     5  C    0.098912
     6  O   -0.335063
     7  C   -0.192232
     8  C   -0.192231
     9  H    0.327429
    10  H    0.154035
    11  H    0.154033
    12  H    0.327428
    13  H    0.165574
    14  H    0.165574
 Sum of Mulliken charges =  -0.00000
 Mulliken charges with hydrogens summed into heavy atoms:
               1
     1  O   -0.007632
     2  C    0.098911
     3  C   -0.064617
     4  C   -0.064624
     5  C    0.098912
     6  O   -0.007636
     7  C   -0.026658
     8  C   -0.026657
 Electronic spatial extent (au):  <R**2>=            958.5528
 Charge=             -0.0000 electrons
 Dipole moment (field-independent basis, Debye):
    X=              0.0000    Y=             -3.8871    Z=             -0.0003  Tot=              3.8871
 Quadrupole moment (field-independent basis, Debye-Ang):
   XX=            -42.8375   YY=            -38.0003   ZZ=            -50.9204
   XY=             -0.0001   XZ=             -0.0021   YZ=             -0.0001
 Traceless Quadrupole moment (field-independent basis, Debye-Ang):
   XX=              1.0819   YY=              5.9191   ZZ=             -7.0010
   XY=             -0.0001   XZ=             -0.0021   YZ=             -0.0001
 Octapole moment (field-independent basis, Debye-Ang**2):
  XXX=              0.0007  YYY=             -4.7299  ZZZ=             -0.0004  XYY=             -0.0001
  XXY=            -41.8059  XXZ=             -0.0017  XZZ=              0.0000  YZZ=             -0.7844
  YYZ=             -0.0002  XYZ=              0.0015
 Hexadecapole moment (field-independent basis, Debye-Ang**3):
 XXXX=           -766.7881 YYYY=           -270.1935 ZZZZ=            -55.9514 XXXY=             -0.0007
 XXXZ=             -0.0143 YYYX=             -0.0002 YYYZ=             -0.0002 ZZZX=             -0.0028
 ZZZY=             -0.0002 XXYY=           -149.1890 XXZZ=           -157.4883 YYZZ=            -68.6651
 XXYZ=             -0.0007 YYXZ=             -0.0022 ZZXY=             -0.0000
 N-N= 3.423839338151D+02 E-N=-1.579800780516D+03  KE= 3.811388564435D+02
 Unable to Open any file for archive entry.
 1\1\GINC-TCN1656\SP\RBP86\TZVP\C6H6O2\ELENAA\22-Feb-2021\0\\# BP86/TZV
 P SCRF=COSMORS geom=CHECKPOINT guess=CHECKPOINT\\COSMO-file for #QIGBR
 XMKCJKVMJ-UHFFFAOYSA-N\\0,1\O,0,0.9285504216,-0.4926601685,-0.16055238
 43\C,0,0.6555767284,0.6183025311,0.6150226895\C,0,0.1589310918,1.75606
 86691,-0.0389190377\C,0,-0.1371991155,2.9115213702,0.6861598454\C,0,0.
 0592745359,2.9449762531,2.0750757365\O,0,-0.253431909,4.1192424488,2.7
 335459314\C,0,0.5553430048,1.8092169645,2.7298571966\C,0,0.8524148825,
 0.6500892797,2.0024721878\H,0,1.2647044793,-1.2078312785,0.4104378132\
 H,0,0.0070823581,1.7271463011,-1.1195375655\H,0,-0.5236982828,3.798165
 39,0.1800850696\H,0,-0.0728688402,4.0111536503,3.6854980743\H,0,0.7126
 881888,1.8229199216,3.8115730701\H,0,1.2388124564,-0.2299313324,2.5233
 513729\\Version=ES64L-G16RevC.01\State=1-A\HF=-382.8443855\RMSD=7.005e
 -09\Dipole=0.4372955,-0.6969069,1.2891367\Quadrupole=-4.149447,0.90788
 1,3.241566,-2.3060969,1.6544656,-1.1057241\PG=C01 [X(C6H6O2)]\\@
 The archive entry for this job was punched.


 A people that values its privileges above its principles soon loses both.
 -- Dwight D. Eisenhower
 Job cpu time:       0 days  0 hours  3 minutes 35.1 seconds.
 Elapsed time:       0 days  0 hours  0 minutes  7.3 seconds.
 File lengths (MBytes):  RWF=     31 Int=      0 D2E=      0 Chk=      6 Scr=      1
 Normal termination of Gaussian 16 at Mon Feb 22 21:18:40 2021.
