 Entering Gaussian System, Link 0=g16
 Input=QTBSBXVTEAMEQO-UHFFFAOYSA-N.gjf
 Output=QTBSBXVTEAMEQO-UHFFFAOYSA-N.log
 Initial command:
 /sw/arch/RedHatEnterpriseServer7/EB_production/2019/software/Gaussian/g16.c01/l1.exe "/scratch-local/elenaa.9715267/Gau-1993.inp" -scrdir="/scratch-local/elenaa.9715267/"
 Entering Link 1 = /sw/arch/RedHatEnterpriseServer7/EB_production/2019/software/Gaussian/g16.c01/l1.exe PID=      1994.
  
 Copyright (c) 1988-2019, Gaussian, Inc.  All Rights Reserved.
  
 This is part of the Gaussian(R) 16 program.  It is based on
 the Gaussian(R) 09 system (copyright 2009, Gaussian, Inc.),
 the Gaussian(R) 03 system (copyright 2003, Gaussian, Inc.),
 the Gaussian(R) 98 system (copyright 1998, Gaussian, Inc.),
 the Gaussian(R) 94 system (copyright 1995, Gaussian, Inc.),
 the Gaussian 92(TM) system (copyright 1992, Gaussian, Inc.),
 the Gaussian 90(TM) system (copyright 1990, Gaussian, Inc.),
 the Gaussian 88(TM) system (copyright 1988, Gaussian, Inc.),
 the Gaussian 86(TM) system (copyright 1986, Carnegie Mellon
 University), and the Gaussian 82(TM) system (copyright 1983,
 Carnegie Mellon University). Gaussian is a federally registered
 trademark of Gaussian, Inc.
  
 This software contains proprietary and confidential information,
 including trade secrets, belonging to Gaussian, Inc.
  
 This software is provided under written license and may be
 used, copied, transmitted, or stored only in accord with that
 written license.
  
 The following legend is applicable only to US Government
 contracts under FAR:
  
                    RESTRICTED RIGHTS LEGEND
  
 Use, reproduction and disclosure by the US Government is
 subject to restrictions as set forth in subparagraphs (a)
 and (c) of the Commercial Computer Software - Restricted
 Rights clause in FAR 52.227-19.
  
 Gaussian, Inc.
 340 Quinnipiac St., Bldg. 40, Wallingford CT 06492
  
  
 ---------------------------------------------------------------
 Warning -- This program may not be used in any manner that
 competes with the business of Gaussian, Inc. or will provide
 assistance to any competitor of Gaussian, Inc.  The licensee
 of this program is prohibited from giving any competitor of
 Gaussian, Inc. access to this program.  By using this program,
 the user acknowledges that Gaussian, Inc. is engaged in the
 business of creating and licensing software in the field of
 computational chemistry and represents and warrants to the
 licensee that it is not a competitor of Gaussian, Inc. and that
 it will not use this program in any manner prohibited above.
 ---------------------------------------------------------------
  

 Cite this work as:
 Gaussian 16, Revision C.01,
 M. J. Frisch, G. W. Trucks, H. B. Schlegel, G. E. Scuseria, 
 M. A. Robb, J. R. Cheeseman, G. Scalmani, V. Barone, 
 G. A. Petersson, H. Nakatsuji, X. Li, M. Caricato, A. V. Marenich, 
 J. Bloino, B. G. Janesko, R. Gomperts, B. Mennucci, H. P. Hratchian, 
 J. V. Ortiz, A. F. Izmaylov, J. L. Sonnenberg, D. Williams-Young, 
 F. Ding, F. Lipparini, F. Egidi, J. Goings, B. Peng, A. Petrone, 
 T. Henderson, D. Ranasinghe, V. G. Zakrzewski, J. Gao, N. Rega, 
 G. Zheng, W. Liang, M. Hada, M. Ehara, K. Toyota, R. Fukuda, 
 J. Hasegawa, M. Ishida, T. Nakajima, Y. Honda, O. Kitao, H. Nakai, 
 T. Vreven, K. Throssell, J. A. Montgomery, Jr., J. E. Peralta, 
 F. Ogliaro, M. J. Bearpark, J. J. Heyd, E. N. Brothers, K. N. Kudin, 
 V. N. Staroverov, T. A. Keith, R. Kobayashi, J. Normand, 
 K. Raghavachari, A. P. Rendell, J. C. Burant, S. S. Iyengar, 
 J. Tomasi, M. Cossi, J. M. Millam, M. Klene, C. Adamo, R. Cammi, 
 J. W. Ochterski, R. L. Martin, K. Morokuma, O. Farkas, 
 J. B. Foresman, and D. J. Fox, Gaussian, Inc., Wallingford CT, 2019.
 
 ******************************************
 Gaussian 16:  ES64L-G16RevC.01  3-Jul-2019
                22-Feb-2021 
 ******************************************
 %chk=QTBSBXVTEAMEQO-UHFFFAOYSA-N.chk
 %NProcShared=32
 Will use up to   32 processors via shared memory.
 -------------------------------------------------------------
 #P BP86/TZVP EmpiricalDispersion=GD3 SCRF=(Solvent=Water) Opt
 -------------------------------------------------------------
 1/18=20,19=15,26=3,38=1/1,3;
 2/9=110,12=2,17=6,18=5,40=1/2;
 3/5=19,7=101,11=2,25=1,30=1,70=2201,71=1,72=1,74=404,124=31/1,2,3;
 4//1;
 5/5=2,38=5,53=1/2;
 6/7=2,8=2,9=2,10=2,28=1/1;
 7//1,2,3,16;
 1/18=20,19=15,26=3/3(2);
 2/9=110/2;
 99//99;
 2/9=110/2;
 3/5=19,7=101,11=2,25=1,30=1,70=2205,71=1,72=1,74=404,124=31/1,2,3;
 4/5=5,16=3,69=1/1;
 5/5=2,38=5,53=1/2;
 7//1,2,3,16;
 1/18=20,19=15,26=3/3(-5);
 2/9=110/2;
 6/7=2,8=2,9=2,10=2,19=2,28=1/1;
 99/9=1/99;
 Leave Link    1 at Mon Feb 22 21:18:14 2021, MaxMem=           0 cpu:               2.0 elap:               0.1
 (Enter /sw/arch/RedHatEnterpriseServer7/EB_production/2019/software/Gaussian/g16.c01/l101.exe)
 -------------------------------------
 Particle #QTBSBXVTEAMEQO-UHFFFAOYSA-N
 -------------------------------------
 Symbolic Z-matrix:
 Charge =  0 Multiplicity = 1
 C                     1.47397   0.76133  -0.03951 
 C                     0.17049   0.08732  -0.09826 
 O                    -0.88373   0.74361   0.06013 
 O                     0.0882   -1.2454   -0.32006 
 H                     1.52384   1.53318  -0.81025 
 H                     2.28562   0.04963  -0.20119 
 H                     1.60368   1.22458   0.94011 
 H                    -0.78569  -1.69015  -0.35152 
 
 ITRead=  0  0  0  0  0  0  0  0
 MicOpt= -1 -1 -1 -1 -1 -1 -1 -1
 NAtoms=      8 NQM=        8 NQMF=       0 NMMI=      0 NMMIF=      0
                NMic=       0 NMicF=      0.
                    Isotopes and Nuclear Properties:
 (Nuclear quadrupole moments (NQMom) in fm**2, nuclear magnetic moments (NMagM)
  in nuclear magnetons)

  Atom         1           2           3           4           5           6           7           8
 IAtWgt=          12          12          16          16           1           1           1           1
 AtmWgt=  12.0000000  12.0000000  15.9949146  15.9949146   1.0078250   1.0078250   1.0078250   1.0078250
 NucSpn=           0           0           0           0           1           1           1           1
 AtZEff=  -0.0000000  -0.0000000  -0.0000000  -0.0000000  -0.0000000  -0.0000000  -0.0000000  -0.0000000
 NQMom=    0.0000000   0.0000000   0.0000000   0.0000000   0.0000000   0.0000000   0.0000000   0.0000000
 NMagM=    0.0000000   0.0000000   0.0000000   0.0000000   2.7928460   2.7928460   2.7928460   2.7928460
 AtZNuc=   6.0000000   6.0000000   8.0000000   8.0000000   1.0000000   1.0000000   1.0000000   1.0000000
 Leave Link  101 at Mon Feb 22 21:18:14 2021, MaxMem=   104857600 cpu:               2.1 elap:               0.1
 (Enter /sw/arch/RedHatEnterpriseServer7/EB_production/2019/software/Gaussian/g16.c01/l103.exe)

 GradGradGradGradGradGradGradGradGradGradGradGradGradGradGradGradGradGrad
 Berny optimization.
 Initialization pass.
                           ----------------------------
                           !    Initial Parameters    !
                           ! (Angstroms and Degrees)  !
 --------------------------                            --------------------------
 ! Name  Definition              Value          Derivative Info.                !
 --------------------------------------------------------------------------------
 ! R1    R(1,2)                  1.4686         estimate D2E/DX2                !
 ! R2    R(1,5)                  1.0919         estimate D2E/DX2                !
 ! R3    R(1,6)                  1.0915         estimate D2E/DX2                !
 ! R4    R(1,7)                  1.0914         estimate D2E/DX2                !
 ! R5    R(2,3)                  1.2519         estimate D2E/DX2                !
 ! R6    R(2,4)                  1.3536         estimate D2E/DX2                !
 ! R7    R(4,8)                  0.9811         estimate D2E/DX2                !
 ! A1    A(2,1,5)              109.677          estimate D2E/DX2                !
 ! A2    A(2,1,6)              110.7822         estimate D2E/DX2                !
 ! A3    A(2,1,7)              109.6457         estimate D2E/DX2                !
 ! A4    A(5,1,6)              108.8072         estimate D2E/DX2                !
 ! A5    A(5,1,7)              109.1542         estimate D2E/DX2                !
 ! A6    A(6,1,7)              108.7441         estimate D2E/DX2                !
 ! A7    A(1,2,3)              120.117          estimate D2E/DX2                !
 ! A8    A(1,2,4)              120.8236         estimate D2E/DX2                !
 ! A9    A(3,2,4)              119.0592         estimate D2E/DX2                !
 ! A10   A(2,4,8)              120.3823         estimate D2E/DX2                !
 ! D1    D(5,1,2,3)            -59.6323         estimate D2E/DX2                !
 ! D2    D(5,1,2,4)            120.5146         estimate D2E/DX2                !
 ! D3    D(6,1,2,3)           -179.7591         estimate D2E/DX2                !
 ! D4    D(6,1,2,4)              0.3878         estimate D2E/DX2                !
 ! D5    D(7,1,2,3)             60.2127         estimate D2E/DX2                !
 ! D6    D(7,1,2,4)           -119.6404         estimate D2E/DX2                !
 ! D7    D(1,2,4,8)            179.5516         estimate D2E/DX2                !
 ! D8    D(3,2,4,8)             -0.303          estimate D2E/DX2                !
 --------------------------------------------------------------------------------
 Trust Radius=3.00D-01 FncErr=1.00D-07 GrdErr=1.00D-06 EigMax=2.50D+02 EigMin=1.00D-04
 Number of steps in this run=     35 maximum allowed number of steps=    100.
 GradGradGradGradGradGradGradGradGradGradGradGradGradGradGradGradGradGrad

 Leave Link  103 at Mon Feb 22 21:18:14 2021, MaxMem=   104857600 cpu:               0.5 elap:               0.0
 (Enter /sw/arch/RedHatEnterpriseServer7/EB_production/2019/software/Gaussian/g16.c01/l202.exe)
                          Input orientation:                          
 ---------------------------------------------------------------------
 Center     Atomic      Atomic             Coordinates (Angstroms)
 Number     Number       Type             X           Y           Z
 ---------------------------------------------------------------------
      1          6           0        1.473970    0.761330   -0.039510
      2          6           0        0.170490    0.087320   -0.098260
      3          8           0       -0.883730    0.743610    0.060130
      4          8           0        0.088200   -1.245400   -0.320060
      5          1           0        1.523840    1.533180   -0.810250
      6          1           0        2.285620    0.049630   -0.201190
      7          1           0        1.603680    1.224580    0.940110
      8          1           0       -0.785690   -1.690150   -0.351520
 ---------------------------------------------------------------------
                    Distance matrix (angstroms):
                    1          2          3          4          5
     1  C    0.000000
     2  C    1.468605   0.000000
     3  O    2.359871   1.251872   0.000000
     4  O    2.454798   1.353554   2.246186   0.000000
     5  H    1.091916   2.104518   2.679062   3.165731   0.000000
     6  H    1.091528   2.117968   3.254946   2.553407   1.775439
     7  H    1.091366   2.103712   2.681959   3.159986   1.779148
     8  H    3.348607   2.034163   2.470274   0.981059   3.991769
                    6          7          8
     6  H    0.000000
     7  H    1.774293   0.000000
     8  H    3.533041   3.984099   0.000000
 Stoichiometry    C2H4O2
 Framework group  C1[X(C2H4O2)]
 Deg. of freedom    18
 Full point group                 C1      NOp   1
 Largest Abelian subgroup         C1      NOp   1
 Largest concise Abelian subgroup C1      NOp   1
                         Standard orientation:                         
 ---------------------------------------------------------------------
 Center     Atomic      Atomic             Coordinates (Angstroms)
 Number     Number       Type             X           Y           Z
 ---------------------------------------------------------------------
      1          6           0        1.364407   -0.332604    0.000345
      2          6           0       -0.047511    0.071484   -0.001035
      3          8           0       -0.353464    1.285393    0.000157
      4          8           0       -1.034123   -0.855180   -0.000619
      5          1           0        1.862102    0.067124   -0.885542
      6          1           0        1.455965   -1.420270   -0.005261
      7          1           0        1.856449    0.056159    0.893563
      8          1           0       -1.975193   -0.577997    0.005075
 ---------------------------------------------------------------------
 Rotational constants (GHZ):          11.6502168           9.0272935           5.2549157
 Leave Link  202 at Mon Feb 22 21:18:14 2021, MaxMem=   104857600 cpu:               0.3 elap:               0.0
 (Enter /sw/arch/RedHatEnterpriseServer7/EB_production/2019/software/Gaussian/g16.c01/l301.exe)
 Standard basis: TZVP (5D, 7F)
 Ernie: Thresh=  0.10000D-02 Tol=  0.10000D-05 Strict=F.
 There are   104 symmetry adapted cartesian basis functions of A   symmetry.
 There are   100 symmetry adapted basis functions of A   symmetry.
   100 basis functions,   172 primitive gaussians,   104 cartesian basis functions
    16 alpha electrons       16 beta electrons
       nuclear repulsion energy       120.1000243822 Hartrees.
 IExCor=  404 DFT=T Ex=B Corr=P86 ExCW=0 ScaHFX=  0.000000
 ScaDFX=  1.000000  1.000000  1.000000  1.000000 ScalE2=  1.000000  1.000000
 IRadAn=      5 IRanWt=     -1 IRanGd=            0 ICorTp=0 IEmpDi=131
 NAtoms=    8 NActive=    8 NUniq=    8 SFac= 1.00D+00 NAtFMM=   60 NAOKFM=F Big=F
 Integral buffers will be    131072 words long.
 Raffenetti 2 integral format.
 Two-electron integral symmetry is turned on.
 R6Disp:  Grimme-D3 Dispersion energy=       -0.0034399897 Hartrees.
 Nuclear repulsion after empirical dispersion term =      120.0965843924 Hartrees.
 ------------------------------------------------------------------------------
 Polarizable Continuum Model (PCM)
 =================================
 Model                : PCM.
 Atomic radii         : UFF (Universal Force Field).
 Polarization charges : Total charges.
 Charge compensation  : None.
 Solution method      : On-the-fly selection.
 Cavity type          : Scaled VdW (van der Waals Surface) (Alpha=1.100).
 Cavity algorithm     : GePol (No added spheres)
                        Default sphere list used, NSphG=    8.
                        Lebedev-Laikov grids with approx.  5.0 points / Ang**2.
                        Smoothing algorithm: York/Karplus (Gamma=1.0000).
                        Polarization charges: spherical gaussians, with
                                              point-specific exponents (IZeta= 3).
                        Self-potential: point-specific (ISelfS= 7).
                        Self-field    : sphere-specific E.n sum rule (ISelfD= 2).
 1st derivatives      : Analytical E(r).r(x)/FMM algorithm (CHGder, D1EAlg=3).
                        Cavity 1st derivative terms included.
 Solvent              : Water, Eps=  78.355300 Eps(inf)=   1.777849
 ------------------------------------------------------------------------------
 Spheres list:
 ISph  on   Nord     Re0    Alpha      Xe            Ye            Ze
    1   C      1    1.9255  1.100      1.364407     -0.332604      0.000345
    2   C      2    1.9255  1.100     -0.047511      0.071484     -0.001035
    3   O      3    1.7500  1.100     -0.353464      1.285393      0.000157
    4   O      4    1.7500  1.100     -1.034123     -0.855180     -0.000619
    5   H      5    1.4430  1.100      1.862102      0.067124     -0.885542
    6   H      6    1.4430  1.100      1.455965     -1.420270     -0.005261
    7   H      7    1.4430  1.100      1.856449      0.056159      0.893563
    8   H      8    1.4430  1.100     -1.975193     -0.577997      0.005075
 ------------------------------------------------------------------------------
 GePol: Number of generator spheres                  =       8
 GePol: Total number of spheres                      =       8
 GePol: Number of exposed spheres                    =       8 (100.00%)
 GePol: Number of points                             =     827
 GePol: Average weight of points                     =       0.14
 GePol: Minimum weight of points                     =   0.33D-08
 GePol: Maximum weight of points                     =    0.20299
 GePol: Number of points with low weight             =      41
 GePol: Fraction of low-weight points (<1% of avg)   =       4.96%
 GePol: Cavity surface area                          =    112.775 Ang**2
 GePol: Cavity volume                                =     95.101 Ang**3
 Leave Link  301 at Mon Feb 22 21:18:15 2021, MaxMem=   104857600 cpu:               1.8 elap:               0.1
 (Enter /sw/arch/RedHatEnterpriseServer7/EB_production/2019/software/Gaussian/g16.c01/l302.exe)
 NPDir=0 NMtPBC=     1 NCelOv=     1 NCel=       1 NClECP=     1 NCelD=      1
         NCelK=      1 NCelE2=     1 NClLst=     1 CellRange=     0.0.
 One-electron integrals computed using PRISM.
 One-electron integral symmetry used in STVInt
 PrsmSu:  requested number of processors reduced to:  30 ShMem   1 Linda.
 NBasis=   100 RedAO= T EigKep=  5.34D-04  NBF=   100
 NBsUse=   100 1.00D-06 EigRej= -1.00D+00 NBFU=   100
 Precomputing XC quadrature grid using
 IXCGrd= 4 IRadAn=           5 IRanWt=          -1 IRanGd=           0 AccXCQ= 0.00D+00.
 Generated NRdTot=       0 NPtTot=           0 NUsed=           0 NTot=          32
 NSgBfM=   104   104   104   104   104 MxSgAt=     8 MxSgA2=     8.
 Leave Link  302 at Mon Feb 22 21:18:15 2021, MaxMem=   104857600 cpu:               7.0 elap:               0.3
 (Enter /sw/arch/RedHatEnterpriseServer7/EB_production/2019/software/Gaussian/g16.c01/l303.exe)
 DipDrv:  MaxL=1.
 Leave Link  303 at Mon Feb 22 21:18:15 2021, MaxMem=   104857600 cpu:               1.9 elap:               0.1
 (Enter /sw/arch/RedHatEnterpriseServer7/EB_production/2019/software/Gaussian/g16.c01/l401.exe)
 ExpMin= 9.52D-02 ExpMax= 2.70D+04 ExpMxC= 9.22D+02 IAcc=3 IRadAn=         5 AccDes= 0.00D+00
 Harris functional with IExCor=  404 and IRadAn=       5 diagonalized for initial guess.
 HarFok:  IExCor=  404 AccDes= 0.00D+00 IRadAn=         5 IDoV= 1 UseB2=F ITyADJ=14
 ICtDFT=  3500011 ScaDFX=  1.000000  1.000000  1.000000  1.000000
 FoFCou: FMM=F IPFlag=           0 FMFlag=      100000 FMFlg1=           0
         NFxFlg=           0 DoJE=T BraDBF=F KetDBF=T FulRan=T
         wScrn=  0.000000 ICntrl=       500 IOpCl=  0 I1Cent=   200000004 NGrid=           0
         NMat0=    1 NMatS0=      1 NMatT0=    0 NMatD0=    1 NMtDS0=    0 NMtDT0=    0
 Petite list used in FoFCou.
 Harris En= -229.257924439882    
 JPrj=0 DoOrth=F DoCkMO=F.
 Leave Link  401 at Mon Feb 22 21:18:15 2021, MaxMem=   104857600 cpu:               7.9 elap:               0.3
 (Enter /sw/arch/RedHatEnterpriseServer7/EB_production/2019/software/Gaussian/g16.c01/l502.exe)
 Keep J ints in memory in canonical form, NReq=42541683.
 FoFCou: FMM=F IPFlag=           0 FMFlag=           0 FMFlg1=           0
         NFxFlg=           0 DoJE=F BraDBF=F KetDBF=F FulRan=T
         wScrn=  0.000000 ICntrl=       600 IOpCl=  0 I1Cent=           0 NGrid=           0
         NMat0=    1 NMatS0=   5050 NMatT0=    0 NMatD0=    1 NMtDS0=    0 NMtDT0=    0
 Symmetry not used in FoFCou.
 Two-electron integral symmetry not used.
 Closed shell SCF:
 Using DIIS extrapolation, IDIIS=  1040.
 NGot=   104857600 LenX=    92077491 LenY=    92066234
 Requested convergence on RMS density matrix=1.00D-08 within 128 cycles.
 Requested convergence on MAX density matrix=1.00D-06.
 Requested convergence on             energy=1.00D-06.
 No special actions if energy rises.

 Cycle   1  Pass 1  IDiag  1:
 Inv3:  Mode=1 IEnd=     2051787.
 Iteration    1 A*A^-1 deviation from unit magnitude is 2.78D-15 for    562.
 Iteration    1 A*A^-1 deviation from orthogonality  is 1.73D-15 for    772     90.
 Iteration    1 A^-1*A deviation from unit magnitude is 2.78D-15 for    562.
 Iteration    1 A^-1*A deviation from orthogonality  is 2.06D-15 for    779    252.
 E= -229.028176919391    
 DIIS: error= 3.73D-02 at cycle   1 NSaved=   1.
 NSaved= 1 IEnMin= 1 EnMin= -229.028176919391     IErMin= 1 ErrMin= 3.73D-02
 ErrMax= 3.73D-02  0.00D+00 EMaxC= 1.00D-01 BMatC= 1.93D-01 BMatP= 1.93D-01
 IDIUse=3 WtCom= 6.27D-01 WtEn= 3.73D-01
 Coeff-Com:  0.100D+01
 Coeff-En:   0.100D+01
 Coeff:      0.100D+01
 Gap=     0.051 Goal=   None    Shift=    0.000
 GapD=    0.051 DampG=0.500 DampE=0.500 DampFc=0.2500 IDamp=-1.
 Damping current iteration by 2.50D-01
 RMSDP=1.19D-02 MaxDP=3.21D-01              OVMax= 3.39D-01

 Cycle   2  Pass 1  IDiag  1:
 E= -229.078554590288     Delta-E=       -0.050377670897 Rises=F Damp=T
 DIIS: error= 1.68D-02 at cycle   2 NSaved=   2.
 NSaved= 2 IEnMin= 2 EnMin= -229.078554590288     IErMin= 2 ErrMin= 1.68D-02
 ErrMax= 1.68D-02  0.00D+00 EMaxC= 1.00D-01 BMatC= 2.16D-02 BMatP= 1.93D-01
 IDIUse=3 WtCom= 8.32D-01 WtEn= 1.68D-01
 Coeff-Com: -0.261D+00 0.126D+01
 Coeff-En:   0.738D-01 0.926D+00
 Coeff:     -0.204D+00 0.120D+01
 Gap=     0.163 Goal=   None    Shift=    0.000
 RMSDP=2.47D-03 MaxDP=3.36D-02 DE=-5.04D-02 OVMax= 2.75D-01

 Cycle   3  Pass 1  IDiag  1:
 E= -229.132141445801     Delta-E=       -0.053586855512 Rises=F Damp=F
 DIIS: error= 2.59D-02 at cycle   3 NSaved=   3.
 NSaved= 3 IEnMin= 3 EnMin= -229.132141445801     IErMin= 2 ErrMin= 1.68D-02
 ErrMax= 2.59D-02  0.00D+00 EMaxC= 1.00D-01 BMatC= 5.98D-02 BMatP= 2.16D-02
 IDIUse=2 WtCom= 0.00D+00 WtEn= 1.00D+00
 EnCoef did     6 forward-backward iterations
 Coeff-En:   0.961D-01 0.109D-01 0.893D+00
 Coeff:      0.961D-01 0.109D-01 0.893D+00
 Gap=     0.121 Goal=   None    Shift=    0.000
 RMSDP=6.15D-03 MaxDP=1.02D-01 DE=-5.36D-02 OVMax= 3.69D-01

 Cycle   4  Pass 1  IDiag  1:
 E= -228.799383354168     Delta-E=        0.332758091632 Rises=F Damp=F
 DIIS: error= 8.07D-02 at cycle   4 NSaved=   4.
 NSaved= 4 IEnMin= 3 EnMin= -229.132141445801     IErMin= 2 ErrMin= 1.68D-02
 ErrMax= 8.07D-02  0.00D+00 EMaxC= 1.00D-01 BMatC= 4.91D-01 BMatP= 2.16D-02
 IDIUse=2 WtCom= 0.00D+00 WtEn= 1.00D+00
 EnCoef did     1 forward-backward iterations
 Coeff-En:   0.138D-01 0.000D+00 0.815D+00 0.172D+00
 Coeff:      0.138D-01 0.000D+00 0.815D+00 0.172D+00
 Gap=     0.158 Goal=   None    Shift=    0.000
 RMSDP=3.94D-03 MaxDP=7.34D-02 DE= 3.33D-01 OVMax= 2.19D-01

 Cycle   5  Pass 1  IDiag  1:
 E= -229.145334515866     Delta-E=       -0.345951161698 Rises=F Damp=F
 DIIS: error= 2.29D-02 at cycle   5 NSaved=   5.
 NSaved= 5 IEnMin= 5 EnMin= -229.145334515866     IErMin= 2 ErrMin= 1.68D-02
 ErrMax= 2.29D-02  0.00D+00 EMaxC= 1.00D-01 BMatC= 4.66D-02 BMatP= 2.16D-02
 IDIUse=2 WtCom= 0.00D+00 WtEn= 1.00D+00
 Coeff-En:   0.000D+00 0.000D+00 0.443D+00 0.000D+00 0.557D+00
 Coeff:      0.000D+00 0.000D+00 0.443D+00 0.000D+00 0.557D+00
 Gap=     0.179 Goal=   None    Shift=    0.000
 RMSDP=1.36D-03 MaxDP=2.65D-02 DE=-3.46D-01 OVMax= 7.89D-02

 Cycle   6  Pass 1  IDiag  1:
 E= -229.179425793078     Delta-E=       -0.034091277212 Rises=F Damp=F
 DIIS: error= 3.29D-03 at cycle   6 NSaved=   6.
 NSaved= 6 IEnMin= 6 EnMin= -229.179425793078     IErMin= 6 ErrMin= 3.29D-03
 ErrMax= 3.29D-03  0.00D+00 EMaxC= 1.00D-01 BMatC= 1.83D-03 BMatP= 2.16D-02
 IDIUse=3 WtCom= 9.67D-01 WtEn= 3.29D-02
 Coeff-Com: -0.491D-01 0.845D-01 0.269D+00-0.382D-01 0.422D+00 0.312D+00
 Coeff-En:   0.000D+00 0.000D+00 0.000D+00 0.000D+00 0.000D+00 0.100D+01
 Coeff:     -0.475D-01 0.817D-01 0.260D+00-0.369D-01 0.408D+00 0.334D+00
 Gap=     0.181 Goal=   None    Shift=    0.000
 RMSDP=2.45D-04 MaxDP=5.93D-03 DE=-3.41D-02 OVMax= 1.09D-02

 Cycle   7  Pass 1  IDiag  1:
 E= -229.180628798102     Delta-E=       -0.001203005024 Rises=F Damp=F
 DIIS: error= 8.30D-04 at cycle   7 NSaved=   7.
 NSaved= 7 IEnMin= 7 EnMin= -229.180628798102     IErMin= 7 ErrMin= 8.30D-04
 ErrMax= 8.30D-04  0.00D+00 EMaxC= 1.00D-01 BMatC= 7.27D-05 BMatP= 1.83D-03
 IDIUse=3 WtCom= 9.92D-01 WtEn= 8.30D-03
 Coeff-Com: -0.938D-02 0.147D-01 0.665D-01-0.163D-01 0.124D+00 0.208D+00
 Coeff-Com:  0.613D+00
 Coeff-En:   0.000D+00 0.000D+00 0.000D+00 0.000D+00 0.000D+00 0.000D+00
 Coeff-En:   0.100D+01
 Coeff:     -0.930D-02 0.146D-01 0.659D-01-0.162D-01 0.122D+00 0.206D+00
 Coeff:      0.616D+00
 Gap=     0.181 Goal=   None    Shift=    0.000
 RMSDP=5.55D-05 MaxDP=1.06D-03 DE=-1.20D-03 OVMax= 2.11D-03

 Cycle   8  Pass 1  IDiag  1:
 E= -229.180678369823     Delta-E=       -0.000049571721 Rises=F Damp=F
 DIIS: error= 1.75D-04 at cycle   8 NSaved=   8.
 NSaved= 8 IEnMin= 8 EnMin= -229.180678369823     IErMin= 8 ErrMin= 1.75D-04
 ErrMax= 1.75D-04  0.00D+00 EMaxC= 1.00D-01 BMatC= 4.48D-06 BMatP= 7.27D-05
 IDIUse=3 WtCom= 9.98D-01 WtEn= 1.75D-03
 Coeff-Com:  0.503D-02-0.831D-02 0.870D-02-0.193D-02 0.154D-01 0.840D-01
 Coeff-Com:  0.321D+00 0.576D+00
 Coeff-En:   0.000D+00 0.000D+00 0.000D+00 0.000D+00 0.000D+00 0.000D+00
 Coeff-En:   0.000D+00 0.100D+01
 Coeff:      0.502D-02-0.830D-02 0.869D-02-0.193D-02 0.154D-01 0.838D-01
 Coeff:      0.321D+00 0.576D+00
 Gap=     0.181 Goal=   None    Shift=    0.000
 RMSDP=2.11D-05 MaxDP=4.05D-04 DE=-4.96D-05 OVMax= 4.55D-04

 Cycle   9  Pass 1  IDiag  1:
 E= -229.180682100163     Delta-E=       -0.000003730340 Rises=F Damp=F
 DIIS: error= 2.88D-05 at cycle   9 NSaved=   9.
 NSaved= 9 IEnMin= 9 EnMin= -229.180682100163     IErMin= 9 ErrMin= 2.88D-05
 ErrMax= 2.88D-05  0.00D+00 EMaxC= 1.00D-01 BMatC= 6.04D-08 BMatP= 4.48D-06
 IDIUse=1 WtCom= 1.00D+00 WtEn= 0.00D+00
 Coeff-Com:  0.114D-02-0.139D-02 0.126D-02-0.292D-03 0.143D-02 0.125D-01
 Coeff-Com:  0.528D-01 0.106D+00 0.826D+00
 Coeff:      0.114D-02-0.139D-02 0.126D-02-0.292D-03 0.143D-02 0.125D-01
 Coeff:      0.528D-01 0.106D+00 0.826D+00
 Gap=     0.181 Goal=   None    Shift=    0.000
 RMSDP=1.59D-06 MaxDP=2.39D-05 DE=-3.73D-06 OVMax= 8.16D-05

 Cycle  10  Pass 1  IDiag  1:
 E= -229.180682166784     Delta-E=       -0.000000066621 Rises=F Damp=F
 DIIS: error= 4.01D-06 at cycle  10 NSaved=  10.
 NSaved=10 IEnMin=10 EnMin= -229.180682166784     IErMin=10 ErrMin= 4.01D-06
 ErrMax= 4.01D-06  0.00D+00 EMaxC= 1.00D-01 BMatC= 1.58D-09 BMatP= 6.04D-08
 IDIUse=1 WtCom= 1.00D+00 WtEn= 0.00D+00
 Coeff-Com:  0.140D-03-0.114D-03 0.178D-03-0.336D-04 0.944D-04 0.473D-03
 Coeff-Com:  0.380D-02 0.320D-02 0.171D+00 0.821D+00
 Coeff:      0.140D-03-0.114D-03 0.178D-03-0.336D-04 0.944D-04 0.473D-03
 Coeff:      0.380D-02 0.320D-02 0.171D+00 0.821D+00
 Gap=     0.181 Goal=   None    Shift=    0.000
 RMSDP=3.47D-07 MaxDP=6.45D-06 DE=-6.66D-08 OVMax= 9.80D-06

 Cycle  11  Pass 1  IDiag  1:
 E= -229.180682178121     Delta-E=       -0.000000011337 Rises=F Damp=F
 DIIS: error= 4.72D-07 at cycle  11 NSaved=  11.
 NSaved=11 IEnMin=11 EnMin= -229.180682178121     IErMin=11 ErrMin= 4.72D-07
 ErrMax= 4.72D-07  0.00D+00 EMaxC= 1.00D-01 BMatC= 3.35D-11 BMatP= 1.58D-09
 IDIUse=1 WtCom= 1.00D+00 WtEn= 0.00D+00
 Coeff-Com:  0.152D-04-0.721D-05 0.321D-04-0.450D-05 0.649D-05-0.140D-03
 Coeff-Com: -0.278D-04-0.138D-02 0.235D-01 0.197D+00 0.781D+00
 Coeff:      0.152D-04-0.721D-05 0.321D-04-0.450D-05 0.649D-05-0.140D-03
 Coeff:     -0.278D-04-0.138D-02 0.235D-01 0.197D+00 0.781D+00
 Gap=     0.181 Goal=   None    Shift=    0.000
 RMSDP=4.58D-08 MaxDP=6.86D-07 DE=-1.13D-08 OVMax= 1.53D-06

 Cycle  12  Pass 1  IDiag  1:
 E= -229.180682178147     Delta-E=       -0.000000000026 Rises=F Damp=F
 DIIS: error= 1.02D-07 at cycle  12 NSaved=  12.
 NSaved=12 IEnMin=12 EnMin= -229.180682178147     IErMin=12 ErrMin= 1.02D-07
 ErrMax= 1.02D-07  0.00D+00 EMaxC= 1.00D-01 BMatC= 1.05D-12 BMatP= 3.35D-11
 IDIUse=1 WtCom= 1.00D+00 WtEn= 0.00D+00
 Coeff-Com: -0.121D-05 0.223D-05 0.266D-05-0.167D-06-0.964D-06-0.408D-04
 Coeff-Com: -0.131D-03-0.358D-03-0.133D-02 0.113D-01 0.162D+00 0.829D+00
 Coeff:     -0.121D-05 0.223D-05 0.266D-05-0.167D-06-0.964D-06-0.408D-04
 Coeff:     -0.131D-03-0.358D-03-0.133D-02 0.113D-01 0.162D+00 0.829D+00
 Gap=     0.181 Goal=   None    Shift=    0.000
 RMSDP=9.15D-09 MaxDP=1.02D-07 DE=-2.55D-11 OVMax= 3.23D-07

 Error on total polarization charges =  0.00771
 SCF Done:  E(RB-P86) =  -229.180682178     A.U. after   12 cycles
            NFock= 12  Conv=0.92D-08     -V/T= 2.0043
 KE= 2.282008602978D+02 PE=-7.784009873854D+02 EE= 2.009228605170D+02
 Leave Link  502 at Mon Feb 22 21:18:18 2021, MaxMem=   104857600 cpu:              64.8 elap:               2.4
 (Enter /sw/arch/RedHatEnterpriseServer7/EB_production/2019/software/Gaussian/g16.c01/l601.exe)
 Copying SCF densities to generalized density rwf, IOpCl= 0 IROHF=0.

 **********************************************************************

            Population analysis using the SCF Density.

 **********************************************************************

 Orbital symmetries:
       Occupied  (A) (A) (A) (A) (A) (A) (A) (A) (A) (A) (A) (A)
                 (A) (A) (A) (A)
       Virtual   (A) (A) (A) (A) (A) (A) (A) (A) (A) (A) (A) (A)
                 (A) (A) (A) (A) (A) (A) (A) (A) (A) (A) (A) (A)
                 (A) (A) (A) (A) (A) (A) (A) (A) (A) (A) (A) (A)
                 (A) (A) (A) (A) (A) (A) (A) (A) (A) (A) (A) (A)
                 (A) (A) (A) (A) (A) (A) (A) (A) (A) (A) (A) (A)
                 (A) (A) (A) (A) (A) (A) (A) (A) (A) (A) (A) (A)
                 (A) (A) (A) (A) (A) (A) (A) (A) (A) (A) (A) (A)
 The electronic state is 1-A.
 Alpha  occ. eigenvalues --  -18.82314 -18.75724 -10.03816  -9.91186  -1.01710
 Alpha  occ. eigenvalues --   -0.92338  -0.70238  -0.58474  -0.45222  -0.42917
 Alpha  occ. eigenvalues --   -0.42460  -0.37300  -0.35524  -0.33941  -0.28368
 Alpha  occ. eigenvalues --   -0.23591
 Alpha virt. eigenvalues --   -0.05455   0.01353   0.05134   0.08901   0.10888
 Alpha virt. eigenvalues --    0.12199   0.14623   0.17523   0.19896   0.21776
 Alpha virt. eigenvalues --    0.24026   0.25701   0.29683   0.33416   0.37340
 Alpha virt. eigenvalues --    0.38674   0.39851   0.41025   0.42576   0.45310
 Alpha virt. eigenvalues --    0.47883   0.49154   0.51991   0.53851   0.57574
 Alpha virt. eigenvalues --    0.61493   0.73483   0.82500   1.07431   1.14025
 Alpha virt. eigenvalues --    1.22240   1.22440   1.23332   1.28006   1.29477
 Alpha virt. eigenvalues --    1.34334   1.38260   1.44926   1.48173   1.50489
 Alpha virt. eigenvalues --    1.51142   1.54455   1.55952   1.71049   1.71150
 Alpha virt. eigenvalues --    1.85670   1.89489   2.01875   2.07469   2.10802
 Alpha virt. eigenvalues --    2.15224   2.17050   2.24951   2.26941   2.38292
 Alpha virt. eigenvalues --    2.45131   2.46137   2.49513   2.50203   2.53940
 Alpha virt. eigenvalues --    2.55194   2.56205   2.59539   2.60036   2.64489
 Alpha virt. eigenvalues --    2.76627   2.77413   2.87318   2.88166   2.94186
 Alpha virt. eigenvalues --    2.98181   3.06343   3.09456   3.17589   3.22775
 Alpha virt. eigenvalues --    3.23197   3.43777   3.82028   3.99697   4.17175
 Alpha virt. eigenvalues --   21.61096  21.76511  42.99753  43.07306
          Condensed to atoms (all electrons):
               1          2          3          4          5          6
     1  C    5.304089   0.184322  -0.121091  -0.107585   0.398462   0.340260
     2  C    0.184322   4.750571   0.584973   0.331749  -0.024039  -0.017613
     3  O   -0.121091   0.584973   8.037130  -0.128796  -0.001880   0.008758
     4  O   -0.107585   0.331749  -0.128796   7.898595   0.000156   0.014257
     5  H    0.398462  -0.024039  -0.001880   0.000156   0.479612  -0.019285
     6  H    0.340260  -0.017613   0.008758   0.014257  -0.019285   0.540728
     7  H    0.399052  -0.024173  -0.002012   0.000073  -0.015637  -0.019324
     8  H    0.014316  -0.021318   0.002363   0.289916  -0.000371  -0.000857
               7          8
     1  C    0.399052   0.014316
     2  C   -0.024173  -0.021318
     3  O   -0.002012   0.002363
     4  O    0.000073   0.289916
     5  H   -0.015637  -0.000371
     6  H   -0.019324  -0.000857
     7  H    0.479000  -0.000373
     8  H   -0.000373   0.381671
 Mulliken charges:
               1
     1  C   -0.411825
     2  C    0.235528
     3  O   -0.379444
     4  O   -0.298365
     5  H    0.182981
     6  H    0.153076
     7  H    0.183395
     8  H    0.334654
 Sum of Mulliken charges =   0.00000
 Mulliken charges with hydrogens summed into heavy atoms:
               1
     1  C    0.107628
     2  C    0.235528
     3  O   -0.379444
     4  O    0.036289
 Electronic spatial extent (au):  <R**2>=            256.7346
 Charge=             -0.0000 electrons
 Dipole moment (field-independent basis, Debye):
    X=              0.4166    Y=             -2.4719    Z=              0.0126  Tot=              2.5068
 Quadrupole moment (field-independent basis, Debye-Ang):
   XX=            -16.4431   YY=            -30.1112   ZZ=            -23.1662
   XY=              1.1029   XZ=             -0.0214   YZ=             -0.0107
 Traceless Quadrupole moment (field-independent basis, Debye-Ang):
   XX=              6.7971   YY=             -6.8710   ZZ=              0.0740
   XY=              1.1029   XZ=             -0.0214   YZ=             -0.0107
 Octapole moment (field-independent basis, Debye-Ang**2):
  XXX=            -15.7619  YYY=             -6.0166  ZZZ=              0.0285  XYY=              1.4807
  XXY=             -3.6393  XXZ=              0.0554  XZZ=              0.0299  YZZ=              0.5842
  YYZ=             -0.0042  XYZ=              0.0078
 Hexadecapole moment (field-independent basis, Debye-Ang**3):
 XXXX=           -130.4769 YYYY=           -129.8054 ZZZZ=            -27.4477 XXXY=             12.8530
 XXXZ=             -0.1179 YYYX=              0.8947 YYYZ=              0.0080 ZZZX=              0.0260
 ZZZY=             -0.0111 XXYY=            -48.3067 XXZZ=            -29.7841 YYZZ=            -25.5881
 XXYZ=             -0.0567 YYXZ=             -0.0320 ZZXY=              1.6512
 N-N= 1.200965843924D+02 E-N=-7.784009853932D+02  KE= 2.282008602978D+02
 No NMR shielding tensors so no spin-rotation constants.
 Leave Link  601 at Mon Feb 22 21:18:18 2021, MaxMem=   104857600 cpu:               4.2 elap:               0.2
 (Enter /sw/arch/RedHatEnterpriseServer7/EB_production/2019/software/Gaussian/g16.c01/l701.exe)
 ... and contract with generalized density number  0.
 Compute integral first derivatives.
 R6Disp: Adding Grimme-D3 dispersion energy 1st derivatives to the gradient.
 PrsmSu:  requested number of processors reduced to:  30 ShMem   1 Linda.
 D1PCM: PCM CHGder 1st derivatives, ID1Alg=3 FixD1E=F DoIter=F DoCFld=F I1PDM=0.
 GePol: Maximum number of non-zero 1st derivatives   =     222
 CoulSu:  requested number of processors reduced to:  30 ShMem   1 Linda.
 CoulSu:  requested number of processors reduced to:  30 ShMem   1 Linda.
 Leave Link  701 at Mon Feb 22 21:18:19 2021, MaxMem=   104857600 cpu:              15.0 elap:               0.5
 (Enter /sw/arch/RedHatEnterpriseServer7/EB_production/2019/software/Gaussian/g16.c01/l702.exe)
 L702 exits ... SP integral derivatives will be done elsewhere.
 Leave Link  702 at Mon Feb 22 21:18:19 2021, MaxMem=   104857600 cpu:               0.9 elap:               0.1
 (Enter /sw/arch/RedHatEnterpriseServer7/EB_production/2019/software/Gaussian/g16.c01/l703.exe)
 Integral derivatives from FoFJK, PRISM(SPDF).
 Compute integral first derivatives, UseDBF=F ICtDFT=           0.
 Calling FoFJK, ICntrl=      2527 FMM=F ISym2X=0 I1Cent= 0 IOpClX= 0 NMat=1 NMatS=1 NMatT=0.
 FoFJK:  IHMeth= 1 ICntrl=    2527 DoSepK=F KAlg= 0 I1Cent=           0 FoldK=F
 IRaf=         0 NMat=       1 IRICut=       1 DoRegI=T DoRafI=F ISym2E= 0 IDoP0=0 IntGTp=1.
 FoFCou: FMM=F IPFlag=           0 FMFlag=      100000 FMFlg1=         800
         NFxFlg=           0 DoJE=F BraDBF=F KetDBF=F FulRan=T
         wScrn=  0.000000 ICntrl=      2527 IOpCl=  0 I1Cent=           0 NGrid=           0
         NMat0=    1 NMatS0=      1 NMatT0=    0 NMatD0=    1 NMtDS0=    0 NMtDT0=    0
 Symmetry not used in FoFCou.
 Leave Link  703 at Mon Feb 22 21:18:19 2021, MaxMem=   104857600 cpu:              10.0 elap:               0.4
 (Enter /sw/arch/RedHatEnterpriseServer7/EB_production/2019/software/Gaussian/g16.c01/l716.exe)
 Dipole        = 1.63907295D-01-9.72537075D-01 4.95795032D-03
 ***** Axes restored to original set *****
 -------------------------------------------------------------------
 Center     Atomic                   Forces (Hartrees/Bohr)
 Number     Number              X              Y              Z
 -------------------------------------------------------------------
      1        6           0.021676946   -0.015887462   -0.004119639
      2        6          -0.080175352    0.013914354    0.006227015
      3        8           0.020987194   -0.010491444   -0.002793301
      4        8           0.038648858   -0.011368002   -0.003645848
      5        1          -0.001638703    0.003307997   -0.001896846
      6        1           0.005975033   -0.000799154   -0.000442657
      7        1          -0.001390954    0.002619025    0.003420817
      8        1          -0.004083023    0.018704686    0.003250459
 -------------------------------------------------------------------
 Cartesian Forces:  Max     0.080175352 RMS     0.020459001
 Leave Link  716 at Mon Feb 22 21:18:20 2021, MaxMem=   104857600 cpu:               0.9 elap:               0.1
 (Enter /sw/arch/RedHatEnterpriseServer7/EB_production/2019/software/Gaussian/g16.c01/l103.exe)

 GradGradGradGradGradGradGradGradGradGradGradGradGradGradGradGradGradGrad
 Berny optimization.
 FormGI is forming the generalized inverse of G from B-inverse, IUseBI=4.
 Internal  Forces:  Max     0.034810125 RMS     0.012574115
 Search for a local minimum.
 Step number   1 out of a maximum of   35
 All quantities printed in internal units (Hartrees-Bohrs-Radians)
 RMS Force = .12574D-01 SwitMx=.10000D-02 MixMth= 1
 Mixed Optimization -- RFO/linear search
 Second derivative matrix not updated -- first step.
 ITU=  0
     Eigenvalues ---    0.01181   0.01458   0.02306   0.07604   0.07715
     Eigenvalues ---    0.16000   0.16000   0.16000   0.16000   0.25000
     Eigenvalues ---    0.25000   0.34592   0.34637   0.34655   0.35908
     Eigenvalues ---    0.51180   0.54272   0.82549
 RFO step:  Lambda=-1.54750513D-02 EMin= 1.18124090D-02
 Linear search not attempted -- first point.
 Iteration  1 RMS(Cart)=  0.05971579 RMS(Int)=  0.00305729
 Iteration  2 RMS(Cart)=  0.00374697 RMS(Int)=  0.00016208
 Iteration  3 RMS(Cart)=  0.00000124 RMS(Int)=  0.00016208
 Iteration  4 RMS(Cart)=  0.00000000 RMS(Int)=  0.00016208
 ITry= 1 IFail=0 DXMaxC= 2.03D-01 DCOld= 1.00D+10 DXMaxT= 3.00D-01 DXLimC= 3.00D+00 Rises=F
 Variable       Old X    -DE/DX   Delta X   Delta X   Delta X     New X
                                 (Linear)    (Quad)   (Total)
    R1        2.77526   0.01679   0.00000   0.04484   0.04484   2.82010
    R2        2.06342   0.00360   0.00000   0.00997   0.00997   2.07339
    R3        2.06269   0.00503   0.00000   0.01390   0.01390   2.07659
    R4        2.06238   0.00402   0.00000   0.01110   0.01110   2.07348
    R5        2.36570  -0.02353   0.00000  -0.02798  -0.02798   2.33772
    R6        2.55785  -0.00926   0.00000  -0.01659  -0.01659   2.54126
    R7        1.85393  -0.00495   0.00000  -0.00938  -0.00938   1.84455
    A1        1.91423  -0.00288   0.00000  -0.01930  -0.01954   1.89469
    A2        1.93351   0.00650   0.00000   0.04288   0.04291   1.97642
    A3        1.91368  -0.00290   0.00000  -0.01939  -0.01963   1.89405
    A4        1.89904  -0.00042   0.00000   0.00324   0.00327   1.90232
    A5        1.90510   0.00006   0.00000  -0.01129  -0.01185   1.89325
    A6        1.89794  -0.00038   0.00000   0.00356   0.00358   1.90153
    A7        2.09644   0.01402   0.00000   0.05282   0.05282   2.14926
    A8        2.10877  -0.03322   0.00000  -0.12515  -0.12515   1.98362
    A9        2.07798   0.01920   0.00000   0.07234   0.07233   2.15031
   A10        2.10107  -0.03481   0.00000  -0.19838  -0.19838   1.90269
    D1       -1.04078   0.00180   0.00000   0.02071   0.02047  -1.02031
    D2        2.10338   0.00170   0.00000   0.01726   0.01703   2.12040
    D3       -3.13739   0.00007   0.00000   0.00198   0.00197  -3.13541
    D4        0.00677  -0.00004   0.00000  -0.00147  -0.00146   0.00530
    D5        1.05091  -0.00170   0.00000  -0.01702  -0.01679   1.03412
    D6       -2.08812  -0.00180   0.00000  -0.02047  -0.02023  -2.10834
    D7        3.13377   0.00015   0.00000   0.00426   0.00427   3.13804
    D8       -0.00529   0.00005   0.00000   0.00087   0.00086  -0.00443
         Item               Value     Threshold  Converged?
 Maximum Force            0.034810     0.000450     NO 
 RMS     Force            0.012574     0.000300     NO 
 Maximum Displacement     0.202772     0.001800     NO 
 RMS     Displacement     0.062157     0.001200     NO 
 Predicted change in Energy=-8.282698D-03
 Lowest energy point so far.  Saving SCF results.
 GradGradGradGradGradGradGradGradGradGradGradGradGradGradGradGradGradGrad

 Leave Link  103 at Mon Feb 22 21:18:20 2021, MaxMem=   104857600 cpu:               6.5 elap:               0.2
 (Enter /sw/arch/RedHatEnterpriseServer7/EB_production/2019/software/Gaussian/g16.c01/l202.exe)
                          Input orientation:                          
 ---------------------------------------------------------------------
 Center     Atomic      Atomic             Coordinates (Angstroms)
 Number     Number       Type             X           Y           Z
 ---------------------------------------------------------------------
      1          6           0        1.469256    0.731691   -0.044316
      2          6           0        0.122591    0.090543   -0.094087
      3          8           0       -0.931876    0.719274    0.058003
      4          8           0        0.163866   -1.234337   -0.320836
      5          1           0        1.513085    1.512173   -0.814223
      6          1           0        2.293219    0.022886   -0.206246
      7          1           0        1.593992    1.204717    0.937834
      8          1           0       -0.747752   -1.582848   -0.336680
 ---------------------------------------------------------------------
                    Distance matrix (angstroms):
                    1          2          3          4          5
     1  C    0.000000
     2  C    1.492332   0.000000
     3  O    2.403343   1.237067   0.000000
     4  O    2.376083   1.344777   2.271732   0.000000
     5  H    1.097191   2.114971   2.714277   3.099538   0.000000
     6  H    1.098882   2.174576   3.309989   2.475456   1.787798
     7  H    1.097238   2.114537   2.718413   3.094914   1.780668
     8  H    3.218336   1.901732   2.342956   0.976093   3.862458
                    6          7          8
     6  H    0.000000
     7  H    1.787334   0.000000
     8  H    3.441351   3.857288   0.000000
 Stoichiometry    C2H4O2
 Framework group  C1[X(C2H4O2)]
 Deg. of freedom    18
 Full point group                 C1      NOp   1
 RotChk:  IX=0 Diff= 1.58D-01
 Largest Abelian subgroup         C1      NOp   1
 Largest concise Abelian subgroup C1      NOp   1
                         Standard orientation:                         
 ---------------------------------------------------------------------
 Center     Atomic      Atomic             Coordinates (Angstroms)
 Number     Number       Type             X           Y           Z
 ---------------------------------------------------------------------
      1          6           0        1.377247   -0.194872    0.000005
      2          6           0       -0.085268    0.101952    0.000137
      3          8           0       -0.542081    1.251585   -0.000137
      4          8           0       -0.859015   -0.997930   -0.000497
      5          1           0        1.827548    0.268634   -0.886685
      6          1           0        1.601367   -1.270640   -0.005947
      7          1           0        1.824762    0.257382    0.893945
      8          1           0       -1.796776   -0.727095    0.002912
 ---------------------------------------------------------------------
 Rotational constants (GHZ):          11.1258896           9.4787156           5.2894157
 Leave Link  202 at Mon Feb 22 21:18:20 2021, MaxMem=   104857600 cpu:               0.2 elap:               0.0
 (Enter /sw/arch/RedHatEnterpriseServer7/EB_production/2019/software/Gaussian/g16.c01/l301.exe)
 Standard basis: TZVP (5D, 7F)
 Ernie: Thresh=  0.10000D-02 Tol=  0.10000D-05 Strict=F.
 There are   104 symmetry adapted cartesian basis functions of A   symmetry.
 There are   100 symmetry adapted basis functions of A   symmetry.
   100 basis functions,   172 primitive gaussians,   104 cartesian basis functions
    16 alpha electrons       16 beta electrons
       nuclear repulsion energy       120.4505070695 Hartrees.
 IExCor=  404 DFT=T Ex=B Corr=P86 ExCW=0 ScaHFX=  0.000000
 ScaDFX=  1.000000  1.000000  1.000000  1.000000 ScalE2=  1.000000  1.000000
 IRadAn=      5 IRanWt=     -1 IRanGd=            0 ICorTp=0 IEmpDi=131
 NAtoms=    8 NActive=    8 NUniq=    8 SFac= 1.00D+00 NAtFMM=   60 NAOKFM=F Big=F
 Integral buffers will be    131072 words long.
 Raffenetti 2 integral format.
 Two-electron integral symmetry is turned on.
 R6Disp:  Grimme-D3 Dispersion energy=       -0.0034507279 Hartrees.
 Nuclear repulsion after empirical dispersion term =      120.4470563416 Hartrees.
 ------------------------------------------------------------------------------
 Polarizable Continuum Model (PCM)
 =================================
 Model                : PCM.
 Atomic radii         : UFF (Universal Force Field).
 Polarization charges : Total charges.
 Charge compensation  : None.
 Solution method      : On-the-fly selection.
 Cavity type          : Scaled VdW (van der Waals Surface) (Alpha=1.100).
 Cavity algorithm     : GePol (No added spheres)
                        Default sphere list used, NSphG=    8.
                        Lebedev-Laikov grids with approx.  5.0 points / Ang**2.
                        Smoothing algorithm: York/Karplus (Gamma=1.0000).
                        Polarization charges: spherical gaussians, with
                                              point-specific exponents (IZeta= 3).
                        Self-potential: point-specific (ISelfS= 7).
                        Self-field    : sphere-specific E.n sum rule (ISelfD= 2).
 1st derivatives      : Analytical E(r).r(x)/FMM algorithm (CHGder, D1EAlg=3).
                        Cavity 1st derivative terms included.
 Solvent              : Water, Eps=  78.355300 Eps(inf)=   1.777849
 ------------------------------------------------------------------------------
 Spheres list:
 ISph  on   Nord     Re0    Alpha      Xe            Ye            Ze
    1   C      1    1.9255  1.100      1.377247     -0.194872      0.000005
    2   C      2    1.9255  1.100     -0.085268      0.101952      0.000137
    3   O      3    1.7500  1.100     -0.542081      1.251585     -0.000137
    4   O      4    1.7500  1.100     -0.859015     -0.997930     -0.000497
    5   H      5    1.4430  1.100      1.827548      0.268634     -0.886685
    6   H      6    1.4430  1.100      1.601367     -1.270640     -0.005947
    7   H      7    1.4430  1.100      1.824762      0.257382      0.893945
    8   H      8    1.4430  1.100     -1.796776     -0.727095      0.002912
 ------------------------------------------------------------------------------
 GePol: Number of generator spheres                  =       8
 GePol: Total number of spheres                      =       8
 GePol: Number of exposed spheres                    =       8 (100.00%)
 GePol: Number of points                             =     825
 GePol: Average weight of points                     =       0.14
 GePol: Minimum weight of points                     =   0.92D-07
 GePol: Maximum weight of points                     =    0.20322
 GePol: Number of points with low weight             =      47
 GePol: Fraction of low-weight points (<1% of avg)   =       5.70%
 GePol: Cavity surface area                          =    111.876 Ang**2
 GePol: Cavity volume                                =     94.763 Ang**3
 Leave Link  301 at Mon Feb 22 21:18:20 2021, MaxMem=   104857600 cpu:               1.8 elap:               0.1
 (Enter /sw/arch/RedHatEnterpriseServer7/EB_production/2019/software/Gaussian/g16.c01/l302.exe)
 NPDir=0 NMtPBC=     1 NCelOv=     1 NCel=       1 NClECP=     1 NCelD=      1
         NCelK=      1 NCelE2=     1 NClLst=     1 CellRange=     0.0.
 One-electron integrals computed using PRISM.
 One-electron integral symmetry used in STVInt
 PrsmSu:  requested number of processors reduced to:  30 ShMem   1 Linda.
 NBasis=   100 RedAO= T EigKep=  5.90D-04  NBF=   100
 NBsUse=   100 1.00D-06 EigRej= -1.00D+00 NBFU=   100
 Precomputing XC quadrature grid using
 IXCGrd= 4 IRadAn=           5 IRanWt=          -1 IRanGd=           0 AccXCQ= 0.00D+00.
 Generated NRdTot=       0 NPtTot=           0 NUsed=           0 NTot=          32
 NSgBfM=   104   104   104   104   104 MxSgAt=     8 MxSgA2=     8.
 Leave Link  302 at Mon Feb 22 21:18:20 2021, MaxMem=   104857600 cpu:               6.8 elap:               0.3
 (Enter /sw/arch/RedHatEnterpriseServer7/EB_production/2019/software/Gaussian/g16.c01/l303.exe)
 DipDrv:  MaxL=1.
 Leave Link  303 at Mon Feb 22 21:18:20 2021, MaxMem=   104857600 cpu:               1.3 elap:               0.1
 (Enter /sw/arch/RedHatEnterpriseServer7/EB_production/2019/software/Gaussian/g16.c01/l401.exe)
 Initial guess from the checkpoint file:  "QTBSBXVTEAMEQO-UHFFFAOYSA-N.chk"
 B after Tr=     0.000000    0.000000   -0.000000
         Rot=    0.997912    0.000022   -0.000044   -0.064593 Ang=   7.41 deg.
 Guess basis will be translated and rotated to current coordinates.
 JPrj=2 DoOrth=T DoCkMO=T.
 Generating alternative initial guess.
 ExpMin= 9.52D-02 ExpMax= 2.70D+04 ExpMxC= 9.22D+02 IAcc=3 IRadAn=         5 AccDes= 0.00D+00
 Harris functional with IExCor=  404 and IRadAn=       5 diagonalized for initial guess.
 HarFok:  IExCor=  404 AccDes= 0.00D+00 IRadAn=         5 IDoV= 1 UseB2=F ITyADJ=14
 ICtDFT=  3500011 ScaDFX=  1.000000  1.000000  1.000000  1.000000
 FoFCou: FMM=F IPFlag=           0 FMFlag=      100000 FMFlg1=           0
         NFxFlg=           0 DoJE=T BraDBF=F KetDBF=T FulRan=T
         wScrn=  0.000000 ICntrl=       500 IOpCl=  0 I1Cent=   200000004 NGrid=           0
         NMat0=    1 NMatS0=      1 NMatT0=    0 NMatD0=    1 NMtDS0=    0 NMtDT0=    0
 Petite list used in FoFCou.
 Harris En= -229.262274539582    
 Leave Link  401 at Mon Feb 22 21:18:21 2021, MaxMem=   104857600 cpu:               6.5 elap:               0.2
 (Enter /sw/arch/RedHatEnterpriseServer7/EB_production/2019/software/Gaussian/g16.c01/l502.exe)
 Keep J ints in memory in canonical form, NReq=42541683.
 FoFCou: FMM=F IPFlag=           0 FMFlag=           0 FMFlg1=           0
         NFxFlg=           0 DoJE=F BraDBF=F KetDBF=F FulRan=T
         wScrn=  0.000000 ICntrl=       600 IOpCl=  0 I1Cent=           0 NGrid=           0
         NMat0=    1 NMatS0=   5050 NMatT0=    0 NMatD0=    1 NMtDS0=    0 NMtDT0=    0
 Symmetry not used in FoFCou.
 Two-electron integral symmetry not used.
 Closed shell SCF:
 Using DIIS extrapolation, IDIIS=  1040.
 NGot=   104857600 LenX=    92077491 LenY=    92066234
 Requested convergence on RMS density matrix=1.00D-08 within 128 cycles.
 Requested convergence on MAX density matrix=1.00D-06.
 Requested convergence on             energy=1.00D-06.
 No special actions if energy rises.

 Cycle   1  Pass 1  IDiag  1:
 Inv3:  Mode=1 IEnd=     2041875.
 Iteration    1 A*A^-1 deviation from unit magnitude is 3.44D-15 for    594.
 Iteration    1 A*A^-1 deviation from orthogonality  is 2.42D-15 for    749    277.
 Iteration    1 A^-1*A deviation from unit magnitude is 3.00D-15 for    594.
 Iteration    1 A^-1*A deviation from orthogonality  is 3.09D-15 for    750     52.
 E= -229.185608356396    
 DIIS: error= 4.83D-03 at cycle   1 NSaved=   1.
 NSaved= 1 IEnMin= 1 EnMin= -229.185608356396     IErMin= 1 ErrMin= 4.83D-03
 ErrMax= 4.83D-03  0.00D+00 EMaxC= 1.00D-01 BMatC= 3.09D-03 BMatP= 3.09D-03
 IDIUse=3 WtCom= 9.52D-01 WtEn= 4.83D-02
 Coeff-Com:  0.100D+01
 Coeff-En:   0.100D+01
 Coeff:      0.100D+01
 Gap=     0.613 Goal=   None    Shift=    0.000
 GapD=    0.613 DampG=2.000 DampE=1.000 DampFc=2.0000 IDamp=-1.
 RMSDP=9.99D-04 MaxDP=1.16D-02              OVMax= 2.10D-02

 Cycle   2  Pass 1  IDiag  1:
 E= -229.188221398816     Delta-E=       -0.002613042419 Rises=F Damp=F
 DIIS: error= 4.79D-03 at cycle   2 NSaved=   2.
 NSaved= 2 IEnMin= 2 EnMin= -229.188221398816     IErMin= 2 ErrMin= 4.79D-03
 ErrMax= 4.79D-03  0.00D+00 EMaxC= 1.00D-01 BMatC= 1.57D-03 BMatP= 3.09D-03
 IDIUse=3 WtCom= 9.52D-01 WtEn= 4.79D-02
 Coeff-Com:  0.370D+00 0.630D+00
 Coeff-En:   0.000D+00 0.100D+01
 Coeff:      0.352D+00 0.648D+00
 Gap=     0.190 Goal=   None    Shift=    0.000
 RMSDP=6.44D-04 MaxDP=1.28D-02 DE=-2.61D-03 OVMax= 3.78D-02

 Cycle   3  Pass 1  IDiag  1:
 E= -229.186684196947     Delta-E=        0.001537201868 Rises=F Damp=F
 DIIS: error= 7.25D-03 at cycle   3 NSaved=   3.
 NSaved= 3 IEnMin= 2 EnMin= -229.188221398816     IErMin= 2 ErrMin= 4.79D-03
 ErrMax= 7.25D-03  0.00D+00 EMaxC= 1.00D-01 BMatC= 3.59D-03 BMatP= 1.57D-03
 IDIUse=3 WtCom= 1.05D-01 WtEn= 8.95D-01
 Coeff-Com:  0.301D-01 0.590D+00 0.380D+00
 Coeff-En:   0.000D+00 0.645D+00 0.355D+00
 Coeff:      0.316D-02 0.639D+00 0.357D+00
 Gap=     0.196 Goal=   None    Shift=    0.000
 RMSDP=3.49D-04 MaxDP=6.61D-03 DE= 1.54D-03 OVMax= 2.10D-02

 Cycle   4  Pass 1  IDiag  1:
 E= -229.189262857321     Delta-E=       -0.002578660374 Rises=F Damp=F
 DIIS: error= 9.88D-04 at cycle   4 NSaved=   4.
 NSaved= 4 IEnMin= 4 EnMin= -229.189262857321     IErMin= 4 ErrMin= 9.88D-04
 ErrMax= 9.88D-04  0.00D+00 EMaxC= 1.00D-01 BMatC= 9.20D-05 BMatP= 1.57D-03
 IDIUse=3 WtCom= 9.90D-01 WtEn= 9.88D-03
 Coeff-Com:  0.282D-02 0.341D+00 0.157D+00 0.499D+00
 Coeff-En:   0.000D+00 0.653D-01 0.000D+00 0.935D+00
 Coeff:      0.279D-02 0.338D+00 0.155D+00 0.504D+00
 Gap=     0.197 Goal=   None    Shift=    0.000
 RMSDP=7.65D-05 MaxDP=1.17D-03 DE=-2.58D-03 OVMax= 2.84D-03

 Cycle   5  Pass 1  IDiag  1:
 E= -229.189331034423     Delta-E=       -0.000068177102 Rises=F Damp=F
 DIIS: error= 1.40D-04 at cycle   5 NSaved=   5.
 NSaved= 5 IEnMin= 5 EnMin= -229.189331034423     IErMin= 5 ErrMin= 1.40D-04
 ErrMax= 1.40D-04  0.00D+00 EMaxC= 1.00D-01 BMatC= 1.78D-06 BMatP= 9.20D-05
 IDIUse=3 WtCom= 9.99D-01 WtEn= 1.40D-03
 Coeff-Com: -0.189D-03 0.118D+00 0.508D-01 0.249D+00 0.582D+00
 Coeff-En:   0.000D+00 0.000D+00 0.000D+00 0.000D+00 0.100D+01
 Coeff:     -0.188D-03 0.118D+00 0.507D-01 0.249D+00 0.583D+00
 Gap=     0.196 Goal=   None    Shift=    0.000
 RMSDP=1.17D-05 MaxDP=1.61D-04 DE=-6.82D-05 OVMax= 4.46D-04

 Cycle   6  Pass 1  IDiag  1:
 E= -229.189332282071     Delta-E=       -0.000001247648 Rises=F Damp=F
 DIIS: error= 4.92D-05 at cycle   6 NSaved=   6.
 NSaved= 6 IEnMin= 6 EnMin= -229.189332282071     IErMin= 6 ErrMin= 4.92D-05
 ErrMax= 4.92D-05  0.00D+00 EMaxC= 1.00D-01 BMatC= 2.74D-07 BMatP= 1.78D-06
 IDIUse=1 WtCom= 1.00D+00 WtEn= 0.00D+00
 Coeff-Com: -0.282D-03 0.482D-01 0.198D-01 0.121D+00 0.373D+00 0.438D+00
 Coeff:     -0.282D-03 0.482D-01 0.198D-01 0.121D+00 0.373D+00 0.438D+00
 Gap=     0.196 Goal=   None    Shift=    0.000
 RMSDP=3.29D-06 MaxDP=6.30D-05 DE=-1.25D-06 OVMax= 1.67D-04

 Cycle   7  Pass 1  IDiag  1:
 E= -229.189332519678     Delta-E=       -0.000000237607 Rises=F Damp=F
 DIIS: error= 9.45D-06 at cycle   7 NSaved=   7.
 NSaved= 7 IEnMin= 7 EnMin= -229.189332519678     IErMin= 7 ErrMin= 9.45D-06
 ErrMax= 9.45D-06  0.00D+00 EMaxC= 1.00D-01 BMatC= 1.21D-08 BMatP= 2.74D-07
 IDIUse=1 WtCom= 1.00D+00 WtEn= 0.00D+00
 Coeff-Com: -0.687D-04 0.822D-02 0.264D-02 0.275D-01 0.103D+00 0.216D+00
 Coeff-Com:  0.642D+00
 Coeff:     -0.687D-04 0.822D-02 0.264D-02 0.275D-01 0.103D+00 0.216D+00
 Coeff:      0.642D+00
 Gap=     0.196 Goal=   None    Shift=    0.000
 RMSDP=6.89D-07 MaxDP=1.21D-05 DE=-2.38D-07 OVMax= 2.42D-05

 Cycle   8  Pass 1  IDiag  1:
 E= -229.189332528153     Delta-E=       -0.000000008475 Rises=F Damp=F
 DIIS: error= 3.19D-06 at cycle   8 NSaved=   8.
 NSaved= 8 IEnMin= 8 EnMin= -229.189332528153     IErMin= 8 ErrMin= 3.19D-06
 ErrMax= 3.19D-06  0.00D+00 EMaxC= 1.00D-01 BMatC= 8.38D-10 BMatP= 1.21D-08
 IDIUse=1 WtCom= 1.00D+00 WtEn= 0.00D+00
 Coeff-Com: -0.260D-04 0.279D-02 0.661D-03 0.102D-01 0.395D-01 0.975D-01
 Coeff-Com:  0.333D+00 0.517D+00
 Coeff:     -0.260D-04 0.279D-02 0.661D-03 0.102D-01 0.395D-01 0.975D-01
 Coeff:      0.333D+00 0.517D+00
 Gap=     0.196 Goal=   None    Shift=    0.000
 RMSDP=2.94D-07 MaxDP=6.10D-06 DE=-8.47D-09 OVMax= 7.23D-06

 Cycle   9  Pass 1  IDiag  1:
 E= -229.189332528879     Delta-E=       -0.000000000727 Rises=F Damp=F
 DIIS: error= 6.63D-07 at cycle   9 NSaved=   9.
 NSaved= 9 IEnMin= 9 EnMin= -229.189332528879     IErMin= 9 ErrMin= 6.63D-07
 ErrMax= 6.63D-07  0.00D+00 EMaxC= 1.00D-01 BMatC= 3.62D-11 BMatP= 8.38D-10
 IDIUse=1 WtCom= 1.00D+00 WtEn= 0.00D+00
 Coeff-Com: -0.311D-05 0.118D-03-0.113D-03 0.879D-03 0.397D-02 0.129D-01
 Coeff-Com:  0.566D-01 0.170D+00 0.755D+00
 Coeff:     -0.311D-05 0.118D-03-0.113D-03 0.879D-03 0.397D-02 0.129D-01
 Coeff:      0.566D-01 0.170D+00 0.755D+00
 Gap=     0.196 Goal=   None    Shift=    0.000
 RMSDP=5.58D-08 MaxDP=5.79D-07 DE=-7.27D-10 OVMax= 2.39D-06

 Cycle  10  Pass 1  IDiag  1:
 E= -229.189332528912     Delta-E=       -0.000000000033 Rises=F Damp=F
 DIIS: error= 7.88D-08 at cycle  10 NSaved=  10.
 NSaved=10 IEnMin=10 EnMin= -229.189332528912     IErMin=10 ErrMin= 7.88D-08
 ErrMax= 7.88D-08  0.00D+00 EMaxC= 1.00D-01 BMatC= 5.12D-13 BMatP= 3.62D-11
 IDIUse=1 WtCom= 1.00D+00 WtEn= 0.00D+00
 Coeff-Com:  0.130D-06-0.431D-04-0.235D-04-0.812D-04-0.178D-03-0.230D-03
 Coeff-Com:  0.233D-02 0.130D-01 0.115D+00 0.870D+00
 Coeff:      0.130D-06-0.431D-04-0.235D-04-0.812D-04-0.178D-03-0.230D-03
 Coeff:      0.233D-02 0.130D-01 0.115D+00 0.870D+00
 Gap=     0.196 Goal=   None    Shift=    0.000
 RMSDP=6.08D-09 MaxDP=6.90D-08 DE=-3.30D-11 OVMax= 2.65D-07

 Error on total polarization charges =  0.00774
 SCF Done:  E(RB-P86) =  -229.189332529     A.U. after   10 cycles
            NFock= 10  Conv=0.61D-08     -V/T= 2.0042
 KE= 2.282417295241D+02 PE=-7.790187746473D+02 EE= 2.011406562527D+02
 Leave Link  502 at Mon Feb 22 21:18:23 2021, MaxMem=   104857600 cpu:              53.4 elap:               1.9
 (Enter /sw/arch/RedHatEnterpriseServer7/EB_production/2019/software/Gaussian/g16.c01/l701.exe)
 ... and contract with generalized density number  0.
 Compute integral first derivatives.
 R6Disp: Adding Grimme-D3 dispersion energy 1st derivatives to the gradient.
 PrsmSu:  requested number of processors reduced to:  30 ShMem   1 Linda.
 D1PCM: PCM CHGder 1st derivatives, ID1Alg=3 FixD1E=F DoIter=F DoCFld=F I1PDM=0.
 GePol: Maximum number of non-zero 1st derivatives   =     215
 CoulSu:  requested number of processors reduced to:  30 ShMem   1 Linda.
 CoulSu:  requested number of processors reduced to:  30 ShMem   1 Linda.
 Leave Link  701 at Mon Feb 22 21:18:23 2021, MaxMem=   104857600 cpu:              11.7 elap:               0.4
 (Enter /sw/arch/RedHatEnterpriseServer7/EB_production/2019/software/Gaussian/g16.c01/l702.exe)
 L702 exits ... SP integral derivatives will be done elsewhere.
 Leave Link  702 at Mon Feb 22 21:18:23 2021, MaxMem=   104857600 cpu:               0.9 elap:               0.1
 (Enter /sw/arch/RedHatEnterpriseServer7/EB_production/2019/software/Gaussian/g16.c01/l703.exe)
 Integral derivatives from FoFJK, PRISM(SPDF).
 Compute integral first derivatives, UseDBF=F ICtDFT=           0.
 Calling FoFJK, ICntrl=      2527 FMM=F ISym2X=0 I1Cent= 0 IOpClX= 0 NMat=1 NMatS=1 NMatT=0.
 FoFJK:  IHMeth= 1 ICntrl=    2527 DoSepK=F KAlg= 0 I1Cent=           0 FoldK=F
 IRaf=         0 NMat=       1 IRICut=       1 DoRegI=T DoRafI=F ISym2E= 0 IDoP0=0 IntGTp=1.
 FoFCou: FMM=F IPFlag=           0 FMFlag=      100000 FMFlg1=         800
         NFxFlg=           0 DoJE=F BraDBF=F KetDBF=F FulRan=T
         wScrn=  0.000000 ICntrl=      2527 IOpCl=  0 I1Cent=           0 NGrid=           0
         NMat0=    1 NMatS0=      1 NMatT0=    0 NMatD0=    1 NMtDS0=    0 NMtDT0=    0
 Symmetry not used in FoFCou.
 Leave Link  703 at Mon Feb 22 21:18:24 2021, MaxMem=   104857600 cpu:               9.2 elap:               0.3
 (Enter /sw/arch/RedHatEnterpriseServer7/EB_production/2019/software/Gaussian/g16.c01/l716.exe)
 Dipole        = 2.49630578D-01-8.56334157D-01 3.52603030D-03
 ***** Axes restored to original set *****
 -------------------------------------------------------------------
 Center     Atomic                   Forces (Hartrees/Bohr)
 Number     Number              X              Y              Z
 -------------------------------------------------------------------
      1        6           0.009410323   -0.002087249   -0.000782538
      2        6          -0.019810470    0.016713559    0.003479614
      3        8           0.011661934   -0.010851075   -0.002243132
      4        8           0.006148523   -0.007383902   -0.001382467
      5        1          -0.000019124    0.001916090    0.000334979
      6        1          -0.001929653    0.000154208    0.000113424
      7        1           0.000001394    0.001930098    0.000367985
      8        1          -0.005462927   -0.000391729    0.000112136
 -------------------------------------------------------------------
 Cartesian Forces:  Max     0.019810470 RMS     0.006987664
 Leave Link  716 at Mon Feb 22 21:18:24 2021, MaxMem=   104857600 cpu:               0.6 elap:               0.0
 (Enter /sw/arch/RedHatEnterpriseServer7/EB_production/2019/software/Gaussian/g16.c01/l103.exe)

 GradGradGradGradGradGradGradGradGradGradGradGradGradGradGradGradGradGrad
 Berny optimization.
 Using GEDIIS/GDIIS optimizer.
 FormGI is forming the generalized inverse of G from B-inverse, IUseBI=4.
 Internal  Forces:  Max     0.015730510 RMS     0.004243082
 Search for a local minimum.
 Step number   2 out of a maximum of   35
 All quantities printed in internal units (Hartrees-Bohrs-Radians)
 RMS Force = .42431D-02 SwitMx=.10000D-02 MixMth= 1
 Mixed Optimization -- RFO/linear search
 Update second derivatives using D2CorX and points    1    2
 DE= -8.65D-03 DEPred=-8.28D-03 R= 1.04D+00
 TightC=F SS=  1.41D+00  RLast= 2.66D-01 DXNew= 5.0454D-01 7.9828D-01
 Trust test= 1.04D+00 RLast= 2.66D-01 DXMaxT set to 5.05D-01
 ITU=  1  0
 Use linear search instead of GDIIS.
     Eigenvalues ---    0.01181   0.01463   0.02306   0.07347   0.07865
     Eigenvalues ---    0.15212   0.16000   0.16000   0.16589   0.23614
     Eigenvalues ---    0.26709   0.34420   0.34623   0.34747   0.35309
     Eigenvalues ---    0.51608   0.56375   0.79876
 RFO step:  Lambda=-9.12430335D-04 EMin= 1.18124088D-02
 Quartic linear search produced a step of  0.08468.
 Iteration  1 RMS(Cart)=  0.01444828 RMS(Int)=  0.00013913
 Iteration  2 RMS(Cart)=  0.00014393 RMS(Int)=  0.00001926
 Iteration  3 RMS(Cart)=  0.00000001 RMS(Int)=  0.00001926
 ITry= 1 IFail=0 DXMaxC= 4.43D-02 DCOld= 1.00D+10 DXMaxT= 5.05D-01 DXLimC= 3.00D+00 Rises=F
 Variable       Old X    -DE/DX   Delta X   Delta X   Delta X     New X
                                 (Linear)    (Quad)   (Total)
    R1        2.82010   0.00756   0.00380   0.02128   0.02508   2.84517
    R2        2.07339   0.00113   0.00084   0.00319   0.00403   2.07742
    R3        2.07659  -0.00156   0.00118  -0.00534  -0.00416   2.07242
    R4        2.07348   0.00116   0.00094   0.00325   0.00419   2.07767
    R5        2.33772  -0.01573  -0.00237  -0.01985  -0.02222   2.31550
    R6        2.54126   0.00789  -0.00140   0.01624   0.01484   2.55610
    R7        1.84455   0.00524  -0.00079   0.01138   0.01058   1.85513
    A1        1.89469   0.00073  -0.00165   0.00480   0.00313   1.89782
    A2        1.97642  -0.00157   0.00363  -0.01044  -0.00680   1.96963
    A3        1.89405   0.00076  -0.00166   0.00500   0.00332   1.89737
    A4        1.90232   0.00080   0.00028   0.00724   0.00752   1.90984
    A5        1.89325  -0.00155  -0.00100  -0.01430  -0.01535   1.87791
    A6        1.90153   0.00079   0.00030   0.00720   0.00751   1.90904
    A7        2.14926   0.00462   0.00447   0.01799   0.02246   2.17171
    A8        1.98362  -0.00138  -0.01060  -0.00133  -0.01193   1.97169
    A9        2.15031  -0.00323   0.00613  -0.01666  -0.01053   2.13977
   A10        1.90269  -0.00295  -0.01680  -0.01108  -0.02788   1.87481
    D1       -1.02031   0.00048   0.00173   0.00333   0.00503  -1.01529
    D2        2.12040   0.00055   0.00144   0.00861   0.01004   2.13045
    D3       -3.13541  -0.00003   0.00017  -0.00242  -0.00227  -3.13768
    D4        0.00530   0.00004  -0.00012   0.00286   0.00275   0.00805
    D5        1.03412  -0.00054  -0.00142  -0.00828  -0.00969   1.02443
    D6       -2.10834  -0.00048  -0.00171  -0.00300  -0.00467  -2.11302
    D7        3.13804   0.00004   0.00036   0.00009   0.00049   3.13853
    D8       -0.00443   0.00010   0.00007   0.00539   0.00542   0.00099
         Item               Value     Threshold  Converged?
 Maximum Force            0.015731     0.000450     NO 
 RMS     Force            0.004243     0.000300     NO 
 Maximum Displacement     0.044336     0.001800     NO 
 RMS     Displacement     0.014405     0.001200     NO 
 Predicted change in Energy=-5.260459D-04
 Lowest energy point so far.  Saving SCF results.
 GradGradGradGradGradGradGradGradGradGradGradGradGradGradGradGradGradGrad

 Leave Link  103 at Mon Feb 22 21:18:24 2021, MaxMem=   104857600 cpu:               1.8 elap:               0.1
 (Enter /sw/arch/RedHatEnterpriseServer7/EB_production/2019/software/Gaussian/g16.c01/l202.exe)
                          Input orientation:                          
 ---------------------------------------------------------------------
 Center     Atomic      Atomic             Coordinates (Angstroms)
 Number     Number       Type             X           Y           Z
 ---------------------------------------------------------------------
      1          6           0        1.475875    0.733863   -0.044514
      2          6           0        0.114600    0.092590   -0.094862
      3          8           0       -0.941349    0.695813    0.055047
      4          8           0        0.166906   -1.240025   -0.320709
      5          1           0        1.523562    1.521790   -0.809635
      6          1           0        2.290313    0.017679   -0.207230
      7          1           0        1.603247    1.214591    0.936037
      8          1           0       -0.756774   -1.572200   -0.334684
 ---------------------------------------------------------------------
                    Distance matrix (angstroms):
                    1          2          3          4          5
     1  C    0.000000
     2  C    1.505602   0.000000
     3  O    2.419573   1.225308   0.000000
     4  O    2.384516   1.352629   2.262054   0.000000
     5  H    1.099324   2.130419   2.739654   3.115635   0.000000
     6  H    1.096679   2.179900   3.312445   2.470537   1.792525
     7  H    1.099455   2.130190   2.742306   3.109280   1.774285
     8  H    3.222863   1.894289   2.308644   0.981692   3.872761
                    6          7          8
     6  H    0.000000
     7  H    1.792126   0.000000
     8  H    3.439287   3.866605   0.000000
 Stoichiometry    C2H4O2
 Framework group  C1[X(C2H4O2)]
 Deg. of freedom    18
 Full point group                 C1      NOp   1
 RotChk:  IX=0 Diff= 2.19D-02
 Largest Abelian subgroup         C1      NOp   1
 Largest concise Abelian subgroup C1      NOp   1
                         Standard orientation:                         
 ---------------------------------------------------------------------
 Center     Atomic      Atomic             Coordinates (Angstroms)
 Number     Number       Type             X           Y           Z
 ---------------------------------------------------------------------
      1          6           0        1.391412   -0.172035    0.000145
      2          6           0       -0.087438    0.110521   -0.001451
      3          8           0       -0.578248    1.233233    0.000326
      4          8           0       -0.839635   -1.013668    0.000050
      5          1           0        1.842633    0.302953   -0.882634
      6          1           0        1.620079   -1.244592   -0.005867
      7          1           0        1.838049    0.291229    0.891607
      8          1           0       -1.781541   -0.737026    0.001724
 ---------------------------------------------------------------------
 Rotational constants (GHZ):          11.2072943           9.3564656           5.2679389
 Leave Link  202 at Mon Feb 22 21:18:24 2021, MaxMem=   104857600 cpu:               0.5 elap:               0.0
 (Enter /sw/arch/RedHatEnterpriseServer7/EB_production/2019/software/Gaussian/g16.c01/l301.exe)
 Standard basis: TZVP (5D, 7F)
 Ernie: Thresh=  0.10000D-02 Tol=  0.10000D-05 Strict=F.
 There are   104 symmetry adapted cartesian basis functions of A   symmetry.
 There are   100 symmetry adapted basis functions of A   symmetry.
   100 basis functions,   172 primitive gaussians,   104 cartesian basis functions
    16 alpha electrons       16 beta electrons
       nuclear repulsion energy       120.3166084681 Hartrees.
 IExCor=  404 DFT=T Ex=B Corr=P86 ExCW=0 ScaHFX=  0.000000
 ScaDFX=  1.000000  1.000000  1.000000  1.000000 ScalE2=  1.000000  1.000000
 IRadAn=      5 IRanWt=     -1 IRanGd=            0 ICorTp=0 IEmpDi=131
 NAtoms=    8 NActive=    8 NUniq=    8 SFac= 1.00D+00 NAtFMM=   60 NAOKFM=F Big=F
 Integral buffers will be    131072 words long.
 Raffenetti 2 integral format.
 Two-electron integral symmetry is turned on.
 R6Disp:  Grimme-D3 Dispersion energy=       -0.0034132541 Hartrees.
 Nuclear repulsion after empirical dispersion term =      120.3131952140 Hartrees.
 ------------------------------------------------------------------------------
 Polarizable Continuum Model (PCM)
 =================================
 Model                : PCM.
 Atomic radii         : UFF (Universal Force Field).
 Polarization charges : Total charges.
 Charge compensation  : None.
 Solution method      : On-the-fly selection.
 Cavity type          : Scaled VdW (van der Waals Surface) (Alpha=1.100).
 Cavity algorithm     : GePol (No added spheres)
                        Default sphere list used, NSphG=    8.
                        Lebedev-Laikov grids with approx.  5.0 points / Ang**2.
                        Smoothing algorithm: York/Karplus (Gamma=1.0000).
                        Polarization charges: spherical gaussians, with
                                              point-specific exponents (IZeta= 3).
                        Self-potential: point-specific (ISelfS= 7).
                        Self-field    : sphere-specific E.n sum rule (ISelfD= 2).
 1st derivatives      : Analytical E(r).r(x)/FMM algorithm (CHGder, D1EAlg=3).
                        Cavity 1st derivative terms included.
 Solvent              : Water, Eps=  78.355300 Eps(inf)=   1.777849
 ------------------------------------------------------------------------------
 Spheres list:
 ISph  on   Nord     Re0    Alpha      Xe            Ye            Ze
    1   C      1    1.9255  1.100      1.391412     -0.172035      0.000145
    2   C      2    1.9255  1.100     -0.087438      0.110521     -0.001451
    3   O      3    1.7500  1.100     -0.578248      1.233233      0.000326
    4   O      4    1.7500  1.100     -0.839635     -1.013668      0.000050
    5   H      5    1.4430  1.100      1.842633      0.302953     -0.882634
    6   H      6    1.4430  1.100      1.620079     -1.244592     -0.005867
    7   H      7    1.4430  1.100      1.838049      0.291229      0.891607
    8   H      8    1.4430  1.100     -1.781541     -0.737026      0.001724
 ------------------------------------------------------------------------------
 GePol: Number of generator spheres                  =       8
 GePol: Total number of spheres                      =       8
 GePol: Number of exposed spheres                    =       8 (100.00%)
 GePol: Number of points                             =     826
 GePol: Average weight of points                     =       0.14
 GePol: Minimum weight of points                     =   0.83D-09
 GePol: Maximum weight of points                     =    0.20322
 GePol: Number of points with low weight             =      41
 GePol: Fraction of low-weight points (<1% of avg)   =       4.96%
 GePol: Cavity surface area                          =    112.120 Ang**2
 GePol: Cavity volume                                =     94.970 Ang**3
 Leave Link  301 at Mon Feb 22 21:18:24 2021, MaxMem=   104857600 cpu:               1.7 elap:               0.1
 (Enter /sw/arch/RedHatEnterpriseServer7/EB_production/2019/software/Gaussian/g16.c01/l302.exe)
 NPDir=0 NMtPBC=     1 NCelOv=     1 NCel=       1 NClECP=     1 NCelD=      1
         NCelK=      1 NCelE2=     1 NClLst=     1 CellRange=     0.0.
 One-electron integrals computed using PRISM.
 One-electron integral symmetry used in STVInt
 PrsmSu:  requested number of processors reduced to:  30 ShMem   1 Linda.
 NBasis=   100 RedAO= T EigKep=  6.00D-04  NBF=   100
 NBsUse=   100 1.00D-06 EigRej= -1.00D+00 NBFU=   100
 Precomputing XC quadrature grid using
 IXCGrd= 4 IRadAn=           5 IRanWt=          -1 IRanGd=           0 AccXCQ= 0.00D+00.
 Generated NRdTot=       0 NPtTot=           0 NUsed=           0 NTot=          32
 NSgBfM=   104   104   104   104   104 MxSgAt=     8 MxSgA2=     8.
 Leave Link  302 at Mon Feb 22 21:18:24 2021, MaxMem=   104857600 cpu:               4.2 elap:               0.2
 (Enter /sw/arch/RedHatEnterpriseServer7/EB_production/2019/software/Gaussian/g16.c01/l303.exe)
 DipDrv:  MaxL=1.
 Leave Link  303 at Mon Feb 22 21:18:24 2021, MaxMem=   104857600 cpu:               1.7 elap:               0.1
 (Enter /sw/arch/RedHatEnterpriseServer7/EB_production/2019/software/Gaussian/g16.c01/l401.exe)
 Initial guess from the checkpoint file:  "QTBSBXVTEAMEQO-UHFFFAOYSA-N.chk"
 B after Tr=     0.000000   -0.000000   -0.000000
         Rot=    0.999949   -0.000013    0.000047   -0.010105 Ang=  -1.16 deg.
 Guess basis will be translated and rotated to current coordinates.
 JPrj=2 DoOrth=T DoCkMO=T.
 Generating alternative initial guess.
 ExpMin= 9.52D-02 ExpMax= 2.70D+04 ExpMxC= 9.22D+02 IAcc=3 IRadAn=         5 AccDes= 0.00D+00
 Harris functional with IExCor=  404 and IRadAn=       5 diagonalized for initial guess.
 HarFok:  IExCor=  404 AccDes= 0.00D+00 IRadAn=         5 IDoV= 1 UseB2=F ITyADJ=14
 ICtDFT=  3500011 ScaDFX=  1.000000  1.000000  1.000000  1.000000
 FoFCou: FMM=F IPFlag=           0 FMFlag=      100000 FMFlg1=           0
         NFxFlg=           0 DoJE=T BraDBF=F KetDBF=T FulRan=T
         wScrn=  0.000000 ICntrl=       500 IOpCl=  0 I1Cent=   200000004 NGrid=           0
         NMat0=    1 NMatS0=      1 NMatT0=    0 NMatD0=    1 NMtDS0=    0 NMtDT0=    0
 Petite list used in FoFCou.
 Harris En= -229.262111950209    
 Leave Link  401 at Mon Feb 22 21:18:25 2021, MaxMem=   104857600 cpu:              10.5 elap:               0.4
 (Enter /sw/arch/RedHatEnterpriseServer7/EB_production/2019/software/Gaussian/g16.c01/l502.exe)
 Keep J ints in memory in canonical form, NReq=42541683.
 FoFCou: FMM=F IPFlag=           0 FMFlag=           0 FMFlg1=           0
         NFxFlg=           0 DoJE=F BraDBF=F KetDBF=F FulRan=T
         wScrn=  0.000000 ICntrl=       600 IOpCl=  0 I1Cent=           0 NGrid=           0
         NMat0=    1 NMatS0=   5050 NMatT0=    0 NMatD0=    1 NMtDS0=    0 NMtDT0=    0
 Symmetry not used in FoFCou.
 Two-electron integral symmetry not used.
 Closed shell SCF:
 Using DIIS extrapolation, IDIIS=  1040.
 NGot=   104857600 LenX=    92077491 LenY=    92066234
 Requested convergence on RMS density matrix=1.00D-08 within 128 cycles.
 Requested convergence on MAX density matrix=1.00D-06.
 Requested convergence on             energy=1.00D-06.
 No special actions if energy rises.

 Cycle   1  Pass 1  IDiag  1:
 Inv3:  Mode=1 IEnd=     2046828.
 Iteration    1 A*A^-1 deviation from unit magnitude is 2.44D-15 for     45.
 Iteration    1 A*A^-1 deviation from orthogonality  is 2.15D-15 for    761      8.
 Iteration    1 A^-1*A deviation from unit magnitude is 2.66D-15 for    592.
 Iteration    1 A^-1*A deviation from orthogonality  is 2.04D-15 for    751     52.
 E= -229.189517339758    
 DIIS: error= 1.29D-03 at cycle   1 NSaved=   1.
 NSaved= 1 IEnMin= 1 EnMin= -229.189517339758     IErMin= 1 ErrMin= 1.29D-03
 ErrMax= 1.29D-03  0.00D+00 EMaxC= 1.00D-01 BMatC= 3.65D-04 BMatP= 3.65D-04
 IDIUse=3 WtCom= 9.87D-01 WtEn= 1.29D-02
 Coeff-Com:  0.100D+01
 Coeff-En:   0.100D+01
 Coeff:      0.100D+01
 Gap=     0.608 Goal=   None    Shift=    0.000
 GapD=    0.608 DampG=2.000 DampE=1.000 DampFc=2.0000 IDamp=-1.
 RMSDP=2.97D-04 MaxDP=4.16D-03              OVMax= 8.70D-03

 Cycle   2  Pass 1  IDiag  1:
 E= -229.189788075405     Delta-E=       -0.000270735647 Rises=F Damp=F
 DIIS: error= 1.95D-03 at cycle   2 NSaved=   2.
 NSaved= 2 IEnMin= 2 EnMin= -229.189788075405     IErMin= 1 ErrMin= 1.29D-03
 ErrMax= 1.95D-03  0.00D+00 EMaxC= 1.00D-01 BMatC= 2.36D-04 BMatP= 3.65D-04
 IDIUse=3 WtCom= 9.80D-01 WtEn= 1.95D-02
 Coeff-Com:  0.422D+00 0.578D+00
 Coeff-En:   0.000D+00 0.100D+01
 Coeff:      0.414D+00 0.586D+00
 Gap=     0.198 Goal=   None    Shift=    0.000
 RMSDP=1.95D-04 MaxDP=3.98D-03 DE=-2.71D-04 OVMax= 1.25D-02

 Cycle   3  Pass 1  IDiag  1:
 E= -229.189682212625     Delta-E=        0.000105862781 Rises=F Damp=F
 DIIS: error= 2.22D-03 at cycle   3 NSaved=   3.
 NSaved= 3 IEnMin= 2 EnMin= -229.189788075405     IErMin= 1 ErrMin= 1.29D-03
 ErrMax= 2.22D-03  0.00D+00 EMaxC= 1.00D-01 BMatC= 3.55D-04 BMatP= 2.36D-04
 IDIUse=3 WtCom= 1.75D-01 WtEn= 8.25D-01
 Coeff-Com:  0.381D-01 0.538D+00 0.424D+00
 Coeff-En:   0.000D+00 0.587D+00 0.413D+00
 Coeff:      0.667D-02 0.579D+00 0.415D+00
 Gap=     0.200 Goal=   None    Shift=    0.000
 RMSDP=1.24D-04 MaxDP=2.19D-03 DE= 1.06D-04 OVMax= 7.33D-03

 Cycle   4  Pass 1  IDiag  1:
 E= -229.189943176220     Delta-E=       -0.000260963596 Rises=F Damp=F
 DIIS: error= 1.81D-04 at cycle   4 NSaved=   4.
 NSaved= 4 IEnMin= 4 EnMin= -229.189943176220     IErMin= 4 ErrMin= 1.81D-04
 ErrMax= 1.81D-04  0.00D+00 EMaxC= 1.00D-01 BMatC= 3.87D-06 BMatP= 2.36D-04
 IDIUse=3 WtCom= 9.98D-01 WtEn= 1.81D-03
 Coeff-Com:  0.399D-02 0.251D+00 0.165D+00 0.580D+00
 Coeff-En:   0.000D+00 0.000D+00 0.000D+00 0.100D+01
 Coeff:      0.399D-02 0.251D+00 0.165D+00 0.580D+00
 Gap=     0.200 Goal=   None    Shift=    0.000
 RMSDP=1.46D-05 MaxDP=2.10D-04 DE=-2.61D-04 OVMax= 4.61D-04

 Cycle   5  Pass 1  IDiag  1:
 E= -229.189945581637     Delta-E=       -0.000002405417 Rises=F Damp=F
 DIIS: error= 6.95D-05 at cycle   5 NSaved=   5.
 NSaved= 5 IEnMin= 5 EnMin= -229.189945581637     IErMin= 5 ErrMin= 6.95D-05
 ErrMax= 6.95D-05  0.00D+00 EMaxC= 1.00D-01 BMatC= 6.45D-07 BMatP= 3.87D-06
 IDIUse=1 WtCom= 1.00D+00 WtEn= 0.00D+00
 Coeff-Com:  0.322D-03 0.105D+00 0.706D-01 0.357D+00 0.467D+00
 Coeff:      0.322D-03 0.105D+00 0.706D-01 0.357D+00 0.467D+00
 Gap=     0.200 Goal=   None    Shift=    0.000
 RMSDP=4.87D-06 MaxDP=9.14D-05 DE=-2.41D-06 OVMax= 2.01D-04

 Cycle   6  Pass 1  IDiag  1:
 E= -229.189946078087     Delta-E=       -0.000000496450 Rises=F Damp=F
 DIIS: error= 1.97D-05 at cycle   6 NSaved=   6.
[...]
 F. Ding, F. Lipparini, F. Egidi, J. Goings, B. Peng, A. Petrone, 
 T. Henderson, D. Ranasinghe, V. G. Zakrzewski, J. Gao, N. Rega, 
 G. Zheng, W. Liang, M. Hada, M. Ehara, K. Toyota, R. Fukuda, 
 J. Hasegawa, M. Ishida, T. Nakajima, Y. Honda, O. Kitao, H. Nakai, 
 T. Vreven, K. Throssell, J. A. Montgomery, Jr., J. E. Peralta, 
 F. Ogliaro, M. J. Bearpark, J. J. Heyd, E. N. Brothers, K. N. Kudin, 
 V. N. Staroverov, T. A. Keith, R. Kobayashi, J. Normand, 
 K. Raghavachari, A. P. Rendell, J. C. Burant, S. S. Iyengar, 
 J. Tomasi, M. Cossi, J. M. Millam, M. Klene, C. Adamo, R. Cammi, 
 J. W. Ochterski, R. L. Martin, K. Morokuma, O. Farkas, 
 J. B. Foresman, and D. J. Fox, Gaussian, Inc., Wallingford CT, 2019.
 
 ******************************************
 Gaussian 16:  ES64L-G16RevC.01  3-Jul-2019
                22-Feb-2021 
 ******************************************
 %chk=QTBSBXVTEAMEQO-UHFFFAOYSA-N.chk
 %NProcShared=32
 Will use up to   32 processors via shared memory.
 ---------------------------------------------------------
 # BP86/TZVP SCRF=COSMORS geom=CHECKPOINT guess=CHECKPOINT
 ---------------------------------------------------------
 1/29=2,38=1,172=1/1;
 2/12=2,40=1/2;
 3/5=19,7=101,11=2,14=-4,25=1,30=1,70=12101,74=404,116=-2/1,2,3;
 4/5=1/1;
 5/5=2,38=6/2;
 6/7=2,8=2,9=2,10=2,28=1/1;
 99/5=1,9=1/99;
 -------------------------------------------
 COSMO-file for #QTBSBXVTEAMEQO-UHFFFAOYSA-N
 -------------------------------------------
 Structure from the checkpoint file:  "QTBSBXVTEAMEQO-UHFFFAOYSA-N.chk"
 Charge =  0 Multiplicity = 1
 Redundant internal coordinates found in file.  (old form).
 C,0,1.4778434723,0.7354681385,-0.0441327723
 C,0,0.1117275654,0.1002211499,-0.092051245
 O,0,-0.9439376854,0.6976852237,0.0547599945
 O,0,0.1697446871,-1.2423036688,-0.3207985408
 H,0,1.5257999728,1.5242303055,-0.8081233974
 H,0,2.281512071,0.0097221431,-0.2084261082
 H,0,1.6065726065,1.2179572253,0.9351304943
 H,0,-0.7528826897,-1.5788805174,-0.3369084251
 Recover connectivity data from disk.
                           ----------------------------
                           !    Current Parameters    !
                           ! (Angstroms and Degrees)  !
 --------------------------                            --------------------------
 ! Name  Definition              Value                                          !
 --------------------------------------------------------------------------------
 ! R1    R(1,2)                  1.5074                                         !
 ! R2    R(1,5)                  1.0991                                         !
 ! R3    R(1,6)                  1.0953                                         !
 ! R4    R(1,7)                  1.0992                                         !
 ! R5    R(2,3)                  1.2219                                         !
 ! R6    R(2,4)                  1.3631                                         !
 ! R7    R(4,8)                  0.9822                                         !
 ! A1    A(2,1,5)              108.6551                                         !
 ! A2    A(2,1,6)              112.3956                                         !
 ! A3    A(2,1,7)              108.6287                                         !
 ! A4    A(5,1,6)              109.83                                           !
 ! A5    A(5,1,7)              107.4048                                         !
 ! A6    A(6,1,7)              109.7885                                         !
 ! A7    A(1,2,3)              124.9693                                         !
 ! A8    A(1,2,4)              112.447                                          !
 ! A9    A(3,2,4)              122.5837                                         !
 ! A10   A(2,4,8)              107.4734                                         !
 ! D1    D(5,1,2,3)            -57.8622                                         !
 ! D2    D(5,1,2,4)            122.1624                                         !
 ! D3    D(6,1,2,3)           -179.6228                                         !
 ! D4    D(6,1,2,4)              0.4018                                         !
 ! D5    D(7,1,2,3)             58.6872                                         !
 ! D6    D(7,1,2,4)           -121.2882                                         !
 ! D7    D(1,2,4,8)            179.9594                                         !
 ! D8    D(3,2,4,8)             -0.0167                                         !
 --------------------------------------------------------------------------------
                          Input orientation:                          
 ---------------------------------------------------------------------
 Center     Atomic      Atomic             Coordinates (Angstroms)
 Number     Number       Type             X           Y           Z
 ---------------------------------------------------------------------
      1          6           0        1.477843    0.735468   -0.044133
      2          6           0        0.111728    0.100221   -0.092051
      3          8           0       -0.943938    0.697685    0.054760
      4          8           0        0.169745   -1.242304   -0.320799
      5          1           0        1.525800    1.524230   -0.808123
      6          1           0        2.281512    0.009722   -0.208426
      7          1           0        1.606573    1.217957    0.935130
      8          1           0       -0.752883   -1.578881   -0.336908
 ---------------------------------------------------------------------
                    Distance matrix (angstroms):
                    1          2          3          4          5
     1  C    0.000000
     2  C    1.507351   0.000000
     3  O    2.424094   1.221862   0.000000
     4  O    2.387310   1.363108   2.268235   0.000000
     5  H    1.099148   2.130766   2.743601   3.119308   0.000000
     6  H    1.095255   2.174787   3.308487   2.457592   1.795682
     7  H    1.099238   2.130492   2.747879   3.113634   1.771796
     8  H    3.227703   1.904439   2.317899   0.982235   3.878625
                    6          7          8
     6  H    0.000000
     7  H    1.795299   0.000000
     8  H    3.427494   3.873940   0.000000
 Stoichiometry    C2H4O2
 Framework group  C1[X(C2H4O2)]
 Deg. of freedom    18
 Full point group                 C1      NOp   1
 Largest Abelian subgroup         C1      NOp   1
 Largest concise Abelian subgroup C1      NOp   1
                         Standard orientation:                         
 ---------------------------------------------------------------------
 Center     Atomic      Atomic             Coordinates (Angstroms)
 Number     Number       Type             X           Y           Z
 ---------------------------------------------------------------------
      1          6           0        1.392841   -0.176052   -0.000078
      2          6           0       -0.085609    0.117705   -0.000198
      3          8           0       -0.577346    1.236249    0.000022
      4          8           0       -0.841624   -1.016537   -0.000044
      5          1           0        1.845763    0.299012   -0.881726
      6          1           0        1.604788   -1.250582   -0.006990
      7          1           0        1.842627    0.286266    0.890021
      8          1           0       -1.784803   -0.742312    0.000529
 ---------------------------------------------------------------------
 Rotational constants (GHZ):          11.1429640           9.3445515           5.2494357
 Standard basis: TZVP (5D, 7F)
 There are   104 symmetry adapted cartesian basis functions of A   symmetry.
 There are   100 symmetry adapted basis functions of A   symmetry.
   100 basis functions,   172 primitive gaussians,   104 cartesian basis functions
    16 alpha electrons       16 beta electrons
       nuclear repulsion energy       120.1319795714 Hartrees.
 NAtoms=    8 NActive=    8 NUniq=    8 SFac= 1.00D+00 NAtFMM=   60 NAOKFM=F Big=F
 Integral buffers will be    131072 words long.
 Raffenetti 2 integral format.
 Two-electron integral symmetry is turned on.
 Warning! Using old PCM defaults because the COSMOthermo output has been requested.
 These settings can be overridden by following keywords.
 ------------------------------------------------------------------------------
 Polarizable Continuum Model (PCM)
 =================================
 Model                : C-PCM.
 Atomic radii         : Klamt.
 XCosmo               : -1.000 (infinite dielectric limit)
 Polarization charges : Electronic and nuclear charges.
 Charge compensation  : Type 3 (Electronic density weighted correction).
 Solution method      : On-the-fly selection.
 Cavity type          : VdW (van der Waals Surface) (Alpha=1.000).
 Cavity algorithm     : GePol (No added spheres)
                        Default sphere list used, NSphG=    8.
                        Tesserae with average area of 0.200 Ang**2.
                        Smoothing algorithm: None.
                        Polarization charges: point-like.
                        Self-potential: constant (ISelfS= 1).
                        Self-field    : global E.n sum rule (ISelfD= 3).
 Solvent              : Water, Eps=  78.355300 Eps(inf)=   1.777849
 ------------------------------------------------------------------------------
 Spheres list:
 ISph  on   Nord     Re0    Alpha      Xe            Ye            Ze
    1   C      1    2.0000  1.000      1.392841     -0.176052     -0.000078
    2   C      2    2.0000  1.000     -0.085609      0.117705     -0.000198
    3   O      3    1.7200  1.000     -0.577346      1.236249      0.000022
    4   O      4    1.7200  1.000     -0.841624     -1.016537     -0.000044
    5   H      5    1.3000  1.000      1.845763      0.299012     -0.881726
    6   H      6    1.3000  1.000      1.604788     -1.250582     -0.006990
    7   H      7    1.3000  1.000      1.842627      0.286266      0.890021
    8   H      8    1.3000  1.000     -1.784803     -0.742312      0.000529
 ------------------------------------------------------------------------------
 One-electron integrals computed using PRISM.
 PrsmSu:  requested number of processors reduced to:  30 ShMem   1 Linda.
 NBasis=   100 RedAO= T EigKep=  6.01D-04  NBF=   100
 NBsUse=   100 1.00D-06 EigRej= -1.00D+00 NBFU=   100
 Initial guess from the checkpoint file:  "QTBSBXVTEAMEQO-UHFFFAOYSA-N.chk"
 B after Tr=     0.000000   -0.000000    0.000000
         Rot=    1.000000    0.000000   -0.000000   -0.000000 Ang=   0.00 deg.
 Keep J ints in memory in canonical form, NReq=42541683.
 Requested convergence on RMS density matrix=1.00D-08 within 128 cycles.
 Requested convergence on MAX density matrix=1.00D-06.
 Requested convergence on             energy=1.00D-06.
 No special actions if energy rises.
 Inv3:  Mode=1 IEnd=     1175628.
 Iteration    1 A*A^-1 deviation from unit magnitude is 4.00D-15 for    253.
 Iteration    1 A*A^-1 deviation from orthogonality  is 1.44D-15 for    377    131.
 Iteration    1 A^-1*A deviation from unit magnitude is 3.77D-15 for    253.
 Iteration    1 A^-1*A deviation from orthogonality  is 1.36D-15 for    504    409.
 Error on nuclear    polarization charges =  0.01348
 Error on electronic polarization charges = -0.03283
 SCF Done:  E(RB-P86) =  -229.191626038     A.U. after   10 cycles
            NFock= 10  Conv=0.34D-08     -V/T= 2.0043
 --------------------------------------------------------------------
 Variational C-PCM results
 =========================
 <psi(f)|   H    |psi(f)>                     (a.u.) =    -229.177421
 <psi(f)|H+V(f)/2|psi(f)>                     (a.u.) =    -229.191626
 Total free energy in solution:
 - with all non electrostatic terms           (a.u.) =    -229.185375
 --------------------------------------------------------------------
 (Polarized solute)-Solvent               (kcal/mol) =      -8.91
 --------------------------------------------------------------------
 Cavitation energy                        (kcal/mol) =      12.00
 Dispersion energy                        (kcal/mol) =      -8.93
 Repulsion energy                         (kcal/mol) =       0.85
 Total non electrostatic                  (kcal/mol) =       3.92
 --------------------------------------------------------------------
 Partition over spheres:
 Sphere  on Atom  Surface  Charge   GEl     GCav    GDR
    1      C1      19.02  -0.026   -0.17    2.23   -1.32
    2      C2      11.03  -0.033   -0.19    1.30   -0.70
    3      O3      20.44   0.252   -4.00    2.54   -1.73
    4      O4      15.98   0.091   -0.76    1.99   -1.38
    5      H5       6.52  -0.046   -0.41    0.92   -0.73
    6      H6       6.46  -0.041   -0.34    0.91   -0.65
    7      H7       6.53  -0.046   -0.41    0.92   -0.73
    8      H8       8.46  -0.150   -2.65    1.19   -0.86
 --------------------------------------------------------------------
 - cavitation energy not included in the total energy.
 - dispersion energy not included in the total energy.
 - repulsion  energy not included in the total energy.
 After PCM corrections, the energy is  -229.191626038     a.u.
 --------------------------------------------------------------------
 Writing COSMO formatted file "QTBSBXVTEAMEQO-UHFFFAOYSA-N.cosmo"
 Recomputed dielectric energy= -0.014249 old= -0.014205 diff=-4.37D-05

 **********************************************************************

            Population analysis using the SCF Density.

 **********************************************************************

 Orbital symmetries:
       Occupied  (A) (A) (A) (A) (A) (A) (A) (A) (A) (A) (A) (A)
                 (A) (A) (A) (A)
       Virtual   (A) (A) (A) (A) (A) (A) (A) (A) (A) (A) (A) (A)
                 (A) (A) (A) (A) (A) (A) (A) (A) (A) (A) (A) (A)
                 (A) (A) (A) (A) (A) (A) (A) (A) (A) (A) (A) (A)
                 (A) (A) (A) (A) (A) (A) (A) (A) (A) (A) (A) (A)
                 (A) (A) (A) (A) (A) (A) (A) (A) (A) (A) (A) (A)
                 (A) (A) (A) (A) (A) (A) (A) (A) (A) (A) (A) (A)
                 (A) (A) (A) (A) (A) (A) (A) (A) (A) (A) (A) (A)
 The electronic state is 1-A.
 Alpha  occ. eigenvalues --  -18.82134 -18.76845 -10.03546  -9.90549  -1.02227
 Alpha  occ. eigenvalues --   -0.93955  -0.68865  -0.55882  -0.44913  -0.43077
 Alpha  occ. eigenvalues --   -0.42462  -0.36439  -0.35333  -0.34837  -0.29216
 Alpha  occ. eigenvalues --   -0.24916
 Alpha virt. eigenvalues --   -0.04685   0.02538   0.06097   0.09637   0.11126
 Alpha virt. eigenvalues --    0.12505   0.14003   0.17306   0.20081   0.22255
 Alpha virt. eigenvalues --    0.23902   0.26876   0.30753   0.32684   0.36233
 Alpha virt. eigenvalues --    0.38979   0.39517   0.41252   0.42787   0.45538
 Alpha virt. eigenvalues --    0.47952   0.49997   0.52007   0.53568   0.57053
 Alpha virt. eigenvalues --    0.59939   0.74408   0.82596   1.08764   1.14955
 Alpha virt. eigenvalues --    1.22348   1.23104   1.24185   1.26274   1.30463
 Alpha virt. eigenvalues --    1.32073   1.36623   1.45280   1.48370   1.50661
 Alpha virt. eigenvalues --    1.50860   1.52581   1.63691   1.71666   1.72052
 Alpha virt. eigenvalues --    1.81907   1.89634   2.00694   2.05093   2.07604
 Alpha virt. eigenvalues --    2.14469   2.15970   2.25366   2.27918   2.36731
 Alpha virt. eigenvalues --    2.44912   2.46155   2.49622   2.49713   2.53326
 Alpha virt. eigenvalues --    2.55269   2.56530   2.58705   2.59133   2.63557
 Alpha virt. eigenvalues --    2.74942   2.79758   2.85346   2.91749   2.98317
 Alpha virt. eigenvalues --    2.98890   3.09683   3.12110   3.14615   3.22958
 Alpha virt. eigenvalues --    3.23875   3.41027   3.79229   4.07015   4.17517
 Alpha virt. eigenvalues --   21.64673  21.74362  42.99669  43.07915
          Condensed to atoms (all electrons):
               1          2          3          4          5          6
     1  C    5.264178   0.237480  -0.104275  -0.123188   0.396255   0.358956
     2  C    0.237480   4.717566   0.576401   0.313092  -0.027106  -0.020410
     3  O   -0.104275   0.576401   8.006310  -0.111476   0.000116   0.006290
     4  O   -0.123188   0.313092  -0.111476   7.917607   0.000800   0.013720
     5  H    0.396255  -0.027106   0.000116   0.000800   0.481985  -0.017169
     6  H    0.358956  -0.020410   0.006290   0.013720  -0.017169   0.511143
     7  H    0.396068  -0.026749   0.000013   0.000715  -0.018335  -0.017111
     8  H    0.015786  -0.020529   0.002671   0.285323  -0.000553  -0.000658
               7          8
     1  C    0.396068   0.015786
     2  C   -0.026749  -0.020529
     3  O    0.000013   0.002671
     4  O    0.000715   0.285323
     5  H   -0.018335  -0.000553
     6  H   -0.017111  -0.000658
     7  H    0.481740  -0.000552
     8  H   -0.000552   0.388321
 Mulliken charges:
               1
     1  C   -0.441261
     2  C    0.250256
     3  O   -0.376051
     4  O   -0.296593
     5  H    0.184009
     6  H    0.165239
     7  H    0.184210
     8  H    0.330190
 Sum of Mulliken charges =  -0.00000
 Mulliken charges with hydrogens summed into heavy atoms:
               1
     1  C    0.092197
     2  C    0.250256
     3  O   -0.376051
     4  O    0.033598
 Electronic spatial extent (au):  <R**2>=            256.9050
 Charge=             -0.0000 electrons
 Dipole moment (field-independent basis, Debye):
    X=              0.7561    Y=             -2.0466    Z=              0.0021  Tot=              2.1818
 Quadrupole moment (field-independent basis, Debye-Ang):
   XX=            -17.8333   YY=            -29.7365   ZZ=            -23.2396
   XY=              2.4471   XZ=              0.0003   YZ=             -0.0016
 Traceless Quadrupole moment (field-independent basis, Debye-Ang):
   XX=              5.7699   YY=             -6.1334   ZZ=              0.3635
   XY=              2.4471   XZ=              0.0003   YZ=             -0.0016
 Octapole moment (field-independent basis, Debye-Ang**2):
  XXX=            -12.2229  YYY=             -5.2240  ZZZ=              0.0216  XYY=              1.9805
  XXY=             -5.0599  XXZ=              0.0064  XZZ=             -0.2873  YZZ=              0.7427
  YYZ=             -0.0163  XYZ=             -0.0018
 Hexadecapole moment (field-independent basis, Debye-Ang**3):
 XXXX=           -142.1342 YYYY=           -132.5566 ZZZZ=            -27.6546 XXXY=             13.2237
 XXXZ=             -0.0082 YYYX=              2.0512 YYYZ=              0.0100 ZZZX=              0.0390
 ZZZY=             -0.0038 XXYY=            -46.3298 XXZZ=            -29.9809 YYZZ=            -25.7708
 XXYZ=             -0.0173 YYXZ=             -0.0335 ZZXY=              2.0030
 N-N= 1.201319795714D+02 E-N=-7.784002015979D+02  KE= 2.282201764240D+02
 Unable to Open any file for archive entry.
 1\1\GINC-TCN1681\SP\RBP86\TZVP\C2H4O2\ELENAA\22-Feb-2021\0\\# BP86/TZV
 P SCRF=COSMORS geom=CHECKPOINT guess=CHECKPOINT\\COSMO-file for #QTBSB
 XVTEAMEQO-UHFFFAOYSA-N\\0,1\C,0,1.4778434723,0.7354681385,-0.044132772
 3\C,0,0.1117275654,0.1002211499,-0.092051245\O,0,-0.9439376854,0.69768
 52237,0.0547599945\O,0,0.1697446871,-1.2423036688,-0.3207985408\H,0,1.
 5257999728,1.5242303055,-0.8081233974\H,0,2.281512071,0.0097221431,-0.
 2084261082\H,0,1.6065726065,1.2179572253,0.9351304943\H,0,-0.752882689
 7,-1.5788805174,-0.3369084251\\Version=ES64L-G16RevC.01\State=1-A\HF=-
 229.191626\RMSD=3.351e-09\Dipole=0.7143557,-0.4634405,-0.1083321\Quadr
 upole=-0.5175918,0.316586,0.2010057,4.6924141,0.8263587,-0.1968148\PG=
 C01 [X(C2H4O2)]\\@
 The archive entry for this job was punched.


 UNLESS WE CHANGE DIRECTIONS, WE WILL WIND UP WHERE WE ARE HEADED.
     -- CONFUCIUS
 Job cpu time:       0 days  0 hours  1 minutes  6.5 seconds.
 Elapsed time:       0 days  0 hours  0 minutes  2.6 seconds.
 File lengths (MBytes):  RWF=     10 Int=      0 D2E=      0 Chk=      4 Scr=      1
 Normal termination of Gaussian 16 at Mon Feb 22 21:18:43 2021.
