 Entering Gaussian System, Link 0=g16
 Input=QTBSBXVTEAMEQO-UHFFFAOYSA-M.gjf
 Output=QTBSBXVTEAMEQO-UHFFFAOYSA-M.log
 Initial command:
 /sw/arch/RedHatEnterpriseServer7/EB_production/2019/software/Gaussian/g16.c01/l1.exe "/scratch-local/elenaa.9715949/Gau-3342.inp" -scrdir="/scratch-local/elenaa.9715949/"
 Entering Link 1 = /sw/arch/RedHatEnterpriseServer7/EB_production/2019/software/Gaussian/g16.c01/l1.exe PID=      3343.
  
 Copyright (c) 1988-2019, Gaussian, Inc.  All Rights Reserved.
  
 This is part of the Gaussian(R) 16 program.  It is based on
 the Gaussian(R) 09 system (copyright 2009, Gaussian, Inc.),
 the Gaussian(R) 03 system (copyright 2003, Gaussian, Inc.),
 the Gaussian(R) 98 system (copyright 1998, Gaussian, Inc.),
 the Gaussian(R) 94 system (copyright 1995, Gaussian, Inc.),
 the Gaussian 92(TM) system (copyright 1992, Gaussian, Inc.),
 the Gaussian 90(TM) system (copyright 1990, Gaussian, Inc.),
 the Gaussian 88(TM) system (copyright 1988, Gaussian, Inc.),
 the Gaussian 86(TM) system (copyright 1986, Carnegie Mellon
 University), and the Gaussian 82(TM) system (copyright 1983,
 Carnegie Mellon University). Gaussian is a federally registered
 trademark of Gaussian, Inc.
  
 This software contains proprietary and confidential information,
 including trade secrets, belonging to Gaussian, Inc.
  
 This software is provided under written license and may be
 used, copied, transmitted, or stored only in accord with that
 written license.
  
 The following legend is applicable only to US Government
 contracts under FAR:
  
                    RESTRICTED RIGHTS LEGEND
  
 Use, reproduction and disclosure by the US Government is
 subject to restrictions as set forth in subparagraphs (a)
 and (c) of the Commercial Computer Software - Restricted
 Rights clause in FAR 52.227-19.
  
 Gaussian, Inc.
 340 Quinnipiac St., Bldg. 40, Wallingford CT 06492
  
  
 ---------------------------------------------------------------
 Warning -- This program may not be used in any manner that
 competes with the business of Gaussian, Inc. or will provide
 assistance to any competitor of Gaussian, Inc.  The licensee
 of this program is prohibited from giving any competitor of
 Gaussian, Inc. access to this program.  By using this program,
 the user acknowledges that Gaussian, Inc. is engaged in the
 business of creating and licensing software in the field of
 computational chemistry and represents and warrants to the
 licensee that it is not a competitor of Gaussian, Inc. and that
 it will not use this program in any manner prohibited above.
 ---------------------------------------------------------------
  

 Cite this work as:
 Gaussian 16, Revision C.01,
 M. J. Frisch, G. W. Trucks, H. B. Schlegel, G. E. Scuseria, 
 M. A. Robb, J. R. Cheeseman, G. Scalmani, V. Barone, 
 G. A. Petersson, H. Nakatsuji, X. Li, M. Caricato, A. V. Marenich, 
 J. Bloino, B. G. Janesko, R. Gomperts, B. Mennucci, H. P. Hratchian, 
 J. V. Ortiz, A. F. Izmaylov, J. L. Sonnenberg, D. Williams-Young, 
 F. Ding, F. Lipparini, F. Egidi, J. Goings, B. Peng, A. Petrone, 
 T. Henderson, D. Ranasinghe, V. G. Zakrzewski, J. Gao, N. Rega, 
 G. Zheng, W. Liang, M. Hada, M. Ehara, K. Toyota, R. Fukuda, 
 J. Hasegawa, M. Ishida, T. Nakajima, Y. Honda, O. Kitao, H. Nakai, 
 T. Vreven, K. Throssell, J. A. Montgomery, Jr., J. E. Peralta, 
 F. Ogliaro, M. J. Bearpark, J. J. Heyd, E. N. Brothers, K. N. Kudin, 
 V. N. Staroverov, T. A. Keith, R. Kobayashi, J. Normand, 
 K. Raghavachari, A. P. Rendell, J. C. Burant, S. S. Iyengar, 
 J. Tomasi, M. Cossi, J. M. Millam, M. Klene, C. Adamo, R. Cammi, 
 J. W. Ochterski, R. L. Martin, K. Morokuma, O. Farkas, 
 J. B. Foresman, and D. J. Fox, Gaussian, Inc., Wallingford CT, 2019.
 
 ******************************************
 Gaussian 16:  ES64L-G16RevC.01  3-Jul-2019
                23-Feb-2021 
 ******************************************
 %chk=QTBSBXVTEAMEQO-UHFFFAOYSA-M.chk
 %NProcShared=32
 Will use up to   32 processors via shared memory.
 -------------------------------------------------------------
 #P BP86/TZVP EmpiricalDispersion=GD3 SCRF=(Solvent=Water) Opt
 -------------------------------------------------------------
 1/18=20,19=15,26=3,38=1/1,3;
 2/9=110,12=2,17=6,18=5,40=1/2;
 3/5=19,7=101,11=2,25=1,30=1,70=2201,71=1,72=1,74=404,124=31/1,2,3;
 4//1;
 5/5=2,38=5,53=1/2;
 6/7=2,8=2,9=2,10=2,28=1/1;
 7//1,2,3,16;
 1/18=20,19=15,26=3/3(2);
 2/9=110/2;
 99//99;
 2/9=110/2;
 3/5=19,7=101,11=2,25=1,30=1,70=2205,71=1,72=1,74=404,124=31/1,2,3;
 4/5=5,16=3,69=1/1;
 5/5=2,38=5,53=1/2;
 7//1,2,3,16;
 1/18=20,19=15,26=3/3(-5);
 2/9=110/2;
 6/7=2,8=2,9=2,10=2,19=2,28=1/1;
 99/9=1/99;
 Leave Link    1 at Tue Feb 23 00:11:24 2021, MaxMem=           0 cpu:               2.4 elap:               0.1
 (Enter /sw/arch/RedHatEnterpriseServer7/EB_production/2019/software/Gaussian/g16.c01/l101.exe)
 -------------------------------------
 Particle #QTBSBXVTEAMEQO-UHFFFAOYSA-M
 -------------------------------------
 Symbolic Z-matrix:
 Charge = -1 Multiplicity = 1
 C                     1.40171   0.46859   0.01364 
 C                    -0.01451   0.08083   0.00386 
 O                    -0.89789   0.91876  -0.28447 
 O                    -0.39055  -1.18294   0.30466 
 H                     2.03004  -0.38207   0.28529 
 H                     1.55931   1.2685    0.7389 
 H                     1.69398   0.81996  -0.97722 
 
 ITRead=  0  0  0  0  0  0  0
 MicOpt= -1 -1 -1 -1 -1 -1 -1
 NAtoms=      7 NQM=        7 NQMF=       0 NMMI=      0 NMMIF=      0
                NMic=       0 NMicF=      0.
                    Isotopes and Nuclear Properties:
 (Nuclear quadrupole moments (NQMom) in fm**2, nuclear magnetic moments (NMagM)
  in nuclear magnetons)

  Atom         1           2           3           4           5           6           7
 IAtWgt=          12          12          16          16           1           1           1
 AtmWgt=  12.0000000  12.0000000  15.9949146  15.9949146   1.0078250   1.0078250   1.0078250
 NucSpn=           0           0           0           0           1           1           1
 AtZEff=  -0.0000000  -0.0000000  -0.0000000  -0.0000000  -0.0000000  -0.0000000  -0.0000000
 NQMom=    0.0000000   0.0000000   0.0000000   0.0000000   0.0000000   0.0000000   0.0000000
 NMagM=    0.0000000   0.0000000   0.0000000   0.0000000   2.7928460   2.7928460   2.7928460
 AtZNuc=   6.0000000   6.0000000   8.0000000   8.0000000   1.0000000   1.0000000   1.0000000
 Leave Link  101 at Tue Feb 23 00:11:24 2021, MaxMem=   104857600 cpu:               2.6 elap:               0.1
 (Enter /sw/arch/RedHatEnterpriseServer7/EB_production/2019/software/Gaussian/g16.c01/l103.exe)

 GradGradGradGradGradGradGradGradGradGradGradGradGradGradGradGradGradGrad
 Berny optimization.
 Initialization pass.
                           ----------------------------
                           !    Initial Parameters    !
                           ! (Angstroms and Degrees)  !
 --------------------------                            --------------------------
 ! Name  Definition              Value          Derivative Info.                !
 --------------------------------------------------------------------------------
 ! R1    R(1,2)                  1.4684         estimate D2E/DX2                !
 ! R2    R(1,5)                  1.0919         estimate D2E/DX2                !
 ! R3    R(1,6)                  1.0912         estimate D2E/DX2                !
 ! R4    R(1,7)                  1.0912         estimate D2E/DX2                !
 ! R5    R(2,3)                  1.2512         estimate D2E/DX2                !
 ! R6    R(2,4)                  1.3524         estimate D2E/DX2                !
 ! A1    A(2,1,5)              110.5447         estimate D2E/DX2                !
 ! A2    A(2,1,6)              109.713          estimate D2E/DX2                !
 ! A3    A(2,1,7)              109.7136         estimate D2E/DX2                !
 ! A4    A(5,1,6)              108.8226         estimate D2E/DX2                !
 ! A5    A(5,1,7)              108.8233         estimate D2E/DX2                !
 ! A6    A(6,1,7)              109.1963         estimate D2E/DX2                !
 ! A7    A(1,2,3)              120.372          estimate D2E/DX2                !
 ! A8    A(1,2,4)              120.8947         estimate D2E/DX2                !
 ! A9    A(3,2,4)              118.7333         estimate D2E/DX2                !
 ! D1    D(5,1,2,3)            179.9997         estimate D2E/DX2                !
 ! D2    D(5,1,2,4)             -0.0007         estimate D2E/DX2                !
 ! D3    D(6,1,2,3)             59.9807         estimate D2E/DX2                !
 ! D4    D(6,1,2,4)           -120.0197         estimate D2E/DX2                !
 ! D5    D(7,1,2,3)            -59.9802         estimate D2E/DX2                !
 ! D6    D(7,1,2,4)            120.0195         estimate D2E/DX2                !
 --------------------------------------------------------------------------------
 Trust Radius=3.00D-01 FncErr=1.00D-07 GrdErr=1.00D-06 EigMax=2.50D+02 EigMin=1.00D-04
 Number of steps in this run=     31 maximum allowed number of steps=    100.
 GradGradGradGradGradGradGradGradGradGradGradGradGradGradGradGradGradGrad

 Leave Link  103 at Tue Feb 23 00:11:24 2021, MaxMem=   104857600 cpu:               0.4 elap:               0.0
 (Enter /sw/arch/RedHatEnterpriseServer7/EB_production/2019/software/Gaussian/g16.c01/l202.exe)
                          Input orientation:                          
 ---------------------------------------------------------------------
 Center     Atomic      Atomic             Coordinates (Angstroms)
 Number     Number       Type             X           Y           Z
 ---------------------------------------------------------------------
      1          6           0        1.401710    0.468590    0.013640
      2          6           0       -0.014510    0.080830    0.003860
      3          8           0       -0.897890    0.918760   -0.284470
      4          8           0       -0.390550   -1.182940    0.304660
      5          1           0        2.030040   -0.382070    0.285290
      6          1           0        1.559310    1.268500    0.738900
      7          1           0        1.693980    0.819960   -0.977220
 ---------------------------------------------------------------------
                    Distance matrix (angstroms):
                    1          2          3          4          5
     1  C    0.000000
     2  C    1.468378   0.000000
     3  O    2.362135   1.251248   0.000000
     4  O    2.454473   1.352406   2.240895   0.000000
     5  H    1.091886   2.115104   3.254160   2.549711   0.000000
     6  H    1.091190   2.104223   2.684667   3.162290   1.775311
     7  H    1.091186   2.104227   2.684670   3.162292   1.775315
                    6          7
     6  H    0.000000
     7  H    1.778874   0.000000
 Stoichiometry    C2H3O2(1-)
 Framework group  C1[X(C2H3O2)]
 Deg. of freedom    15
 Full point group                 C1      NOp   1
 Largest Abelian subgroup         C1      NOp   1
 Largest concise Abelian subgroup C1      NOp   1
                         Standard orientation:                         
 ---------------------------------------------------------------------
 Center     Atomic      Atomic             Coordinates (Angstroms)
 Number     Number       Type             X           Y           Z
 ---------------------------------------------------------------------
      1          6           0        1.340061   -0.151452   -0.000002
      2          6           0       -0.116321    0.035857    0.000001
      3          8           0       -0.606093    1.187267   -0.000000
      4          8           0       -0.953094   -1.026599   -0.000001
      5          1           0        1.589690   -1.214419    0.000006
      6          1           0        1.770681    0.311321    0.889438
      7          1           0        1.770685    0.311320   -0.889435
 ---------------------------------------------------------------------
 Rotational constants (GHZ):          11.7851112           9.6774968           5.4982844
 Leave Link  202 at Tue Feb 23 00:11:25 2021, MaxMem=   104857600 cpu:               1.1 elap:               0.1
 (Enter /sw/arch/RedHatEnterpriseServer7/EB_production/2019/software/Gaussian/g16.c01/l301.exe)
 Standard basis: TZVP (5D, 7F)
 Ernie: Thresh=  0.10000D-02 Tol=  0.10000D-05 Strict=F.
 There are    98 symmetry adapted cartesian basis functions of A   symmetry.
 There are    94 symmetry adapted basis functions of A   symmetry.
    94 basis functions,   164 primitive gaussians,    98 cartesian basis functions
    16 alpha electrons       16 beta electrons
       nuclear repulsion energy       111.2031735154 Hartrees.
 IExCor=  404 DFT=T Ex=B Corr=P86 ExCW=0 ScaHFX=  0.000000
 ScaDFX=  1.000000  1.000000  1.000000  1.000000 ScalE2=  1.000000  1.000000
 IRadAn=      5 IRanWt=     -1 IRanGd=            0 ICorTp=0 IEmpDi=131
 NAtoms=    7 NActive=    7 NUniq=    7 SFac= 1.00D+00 NAtFMM=   60 NAOKFM=F Big=F
 Integral buffers will be    131072 words long.
 Raffenetti 2 integral format.
 Two-electron integral symmetry is turned on.
 R6Disp:  Grimme-D3 Dispersion energy=       -0.0027782415 Hartrees.
 Nuclear repulsion after empirical dispersion term =      111.2003952740 Hartrees.
 ------------------------------------------------------------------------------
 Polarizable Continuum Model (PCM)
 =================================
 Model                : PCM.
 Atomic radii         : UFF (Universal Force Field).
 Polarization charges : Total charges.
 Charge compensation  : None.
 Solution method      : On-the-fly selection.
 Cavity type          : Scaled VdW (van der Waals Surface) (Alpha=1.100).
 Cavity algorithm     : GePol (No added spheres)
                        Default sphere list used, NSphG=    7.
                        Lebedev-Laikov grids with approx.  5.0 points / Ang**2.
                        Smoothing algorithm: York/Karplus (Gamma=1.0000).
                        Polarization charges: spherical gaussians, with
                                              point-specific exponents (IZeta= 3).
                        Self-potential: point-specific (ISelfS= 7).
                        Self-field    : sphere-specific E.n sum rule (ISelfD= 2).
 1st derivatives      : Analytical E(r).r(x)/FMM algorithm (CHGder, D1EAlg=3).
                        Cavity 1st derivative terms included.
 Solvent              : Water, Eps=  78.355300 Eps(inf)=   1.777849
 ------------------------------------------------------------------------------
 Spheres list:
 ISph  on   Nord     Re0    Alpha      Xe            Ye            Ze
    1   C      1    1.9255  1.100      1.340061     -0.151452     -0.000002
    2   C      2    1.9255  1.100     -0.116321      0.035857      0.000001
    3   O      3    1.7500  1.100     -0.606093      1.187267     -0.000000
    4   O      4    1.7500  1.100     -0.953094     -1.026599     -0.000001
    5   H      5    1.4430  1.100      1.589690     -1.214419      0.000006
    6   H      6    1.4430  1.100      1.770681      0.311321      0.889438
    7   H      7    1.4430  1.100      1.770685      0.311320     -0.889435
 ------------------------------------------------------------------------------
 GePol: Number of generator spheres                  =       7
 GePol: Total number of spheres                      =       7
 GePol: Number of exposed spheres                    =       7 (100.00%)
 GePol: Number of points                             =     799
 GePol: Average weight of points                     =       0.14
 GePol: Minimum weight of points                     =   0.39D-07
 GePol: Maximum weight of points                     =    0.20299
 GePol: Number of points with low weight             =      34
 GePol: Fraction of low-weight points (<1% of avg)   =       4.26%
 GePol: Cavity surface area                          =    108.786 Ang**2
 GePol: Cavity volume                                =     91.412 Ang**3
 Leave Link  301 at Tue Feb 23 00:11:25 2021, MaxMem=   104857600 cpu:               1.7 elap:               0.1
 (Enter /sw/arch/RedHatEnterpriseServer7/EB_production/2019/software/Gaussian/g16.c01/l302.exe)
 NPDir=0 NMtPBC=     1 NCelOv=     1 NCel=       1 NClECP=     1 NCelD=      1
         NCelK=      1 NCelE2=     1 NClLst=     1 CellRange=     0.0.
 One-electron integrals computed using PRISM.
 One-electron integral symmetry used in STVInt
 PrsmSu:  requested number of processors reduced to:  30 ShMem   1 Linda.
 NBasis=    94 RedAO= T EigKep=  5.93D-04  NBF=    94
 NBsUse=    94 1.00D-06 EigRej= -1.00D+00 NBFU=    94
 Precomputing XC quadrature grid using
 IXCGrd= 4 IRadAn=           5 IRanWt=          -1 IRanGd=           0 AccXCQ= 0.00D+00.
 Generated NRdTot=       0 NPtTot=           0 NUsed=           0 NTot=          32
 NSgBfM=    98    98    98    98    98 MxSgAt=     7 MxSgA2=     7.
 Leave Link  302 at Tue Feb 23 00:11:25 2021, MaxMem=   104857600 cpu:               4.2 elap:               0.2
 (Enter /sw/arch/RedHatEnterpriseServer7/EB_production/2019/software/Gaussian/g16.c01/l303.exe)
 DipDrv:  MaxL=1.
 Leave Link  303 at Tue Feb 23 00:11:25 2021, MaxMem=   104857600 cpu:               1.2 elap:               0.1
 (Enter /sw/arch/RedHatEnterpriseServer7/EB_production/2019/software/Gaussian/g16.c01/l401.exe)
 ExpMin= 9.52D-02 ExpMax= 2.70D+04 ExpMxC= 9.22D+02 IAcc=3 IRadAn=         5 AccDes= 0.00D+00
 Harris functional with IExCor=  404 and IRadAn=       5 diagonalized for initial guess.
 HarFok:  IExCor=  404 AccDes= 0.00D+00 IRadAn=         5 IDoV= 1 UseB2=F ITyADJ=14
 ICtDFT=  3500011 ScaDFX=  1.000000  1.000000  1.000000  1.000000
 FoFCou: FMM=F IPFlag=           0 FMFlag=      100000 FMFlg1=           0
         NFxFlg=           0 DoJE=T BraDBF=F KetDBF=T FulRan=T
         wScrn=  0.000000 ICntrl=       500 IOpCl=  0 I1Cent=   200000004 NGrid=           0
         NMat0=    1 NMatS0=      1 NMatT0=    0 NMatD0=    1 NMtDS0=    0 NMtDT0=    0
 Petite list used in FoFCou.
 Harris En= -228.875461063425    
 JPrj=0 DoOrth=F DoCkMO=F.
 Leave Link  401 at Tue Feb 23 00:11:25 2021, MaxMem=   104857600 cpu:               6.6 elap:               0.3
 (Enter /sw/arch/RedHatEnterpriseServer7/EB_production/2019/software/Gaussian/g16.c01/l502.exe)
 Keep J ints in memory in canonical form, NReq=39495675.
 FoFCou: FMM=F IPFlag=           0 FMFlag=           0 FMFlg1=           0
         NFxFlg=           0 DoJE=F BraDBF=F KetDBF=F FulRan=T
         wScrn=  0.000000 ICntrl=       600 IOpCl=  0 I1Cent=           0 NGrid=           0
         NMat0=    1 NMatS0=   4465 NMatT0=    0 NMatD0=    1 NMtDS0=    0 NMtDT0=    0
 Symmetry not used in FoFCou.
 Two-electron integral symmetry not used.
 Closed shell SCF:
 Using DIIS extrapolation, IDIIS=  1040.
 NGot=   104857600 LenX=    94863637 LenY=    94853592
 Requested convergence on RMS density matrix=1.00D-08 within 128 cycles.
 Requested convergence on MAX density matrix=1.00D-06.
 Requested convergence on             energy=1.00D-06.
 No special actions if energy rises.

 Cycle   1  Pass 1  IDiag  1:
 Inv3:  Mode=1 IEnd=     1915203.
 Iteration    1 A*A^-1 deviation from unit magnitude is 2.89D-15 for    207.
 Iteration    1 A*A^-1 deviation from orthogonality  is 1.24D-15 for    767    183.
 Iteration    1 A^-1*A deviation from unit magnitude is 2.66D-15 for    583.
 Iteration    1 A^-1*A deviation from orthogonality  is 2.00D-15 for    749    166.
 E= -228.486752111711    
 DIIS: error= 6.14D-02 at cycle   1 NSaved=   1.
 NSaved= 1 IEnMin= 1 EnMin= -228.486752111711     IErMin= 1 ErrMin= 6.14D-02
 ErrMax= 6.14D-02  0.00D+00 EMaxC= 1.00D-01 BMatC= 2.67D-01 BMatP= 2.67D-01
 IDIUse=3 WtCom= 3.86D-01 WtEn= 6.14D-01
 Coeff-Com:  0.100D+01
 Coeff-En:   0.100D+01
 Coeff:      0.100D+01
 Gap=     0.040 Goal=   None    Shift=    0.000
 GapD=    0.040 DampG=0.250 DampE=0.500 DampFc=0.2500 IDamp=-1.
 Damping current iteration by 2.50D-01
 RMSDP=7.15D-02 MaxDP=4.04D+00              OVMax= 3.46D-01

 Cycle   2  Pass 1  IDiag  1:
 E= -228.565415735837     Delta-E=       -0.078663624126 Rises=F Damp=T
 DIIS: error= 1.99D-02 at cycle   2 NSaved=   2.
 NSaved= 2 IEnMin= 2 EnMin= -228.565415735837     IErMin= 2 ErrMin= 1.99D-02
 ErrMax= 1.99D-02  0.00D+00 EMaxC= 1.00D-01 BMatC= 2.47D-02 BMatP= 2.67D-01
 IDIUse=3 WtCom= 8.01D-01 WtEn= 1.99D-01
 Coeff-Com: -0.290D+00 0.129D+01
 Coeff-En:   0.000D+00 0.100D+01
 Coeff:     -0.232D+00 0.123D+01
 Gap=     0.186 Goal=   None    Shift=    0.000
 RMSDP=1.08D-02 MaxDP=6.06D-01 DE=-7.87D-02 OVMax= 2.49D-01

 Cycle   3  Pass 1  IDiag  1:
 E= -228.683307865502     Delta-E=       -0.117892129665 Rises=F Damp=F
 DIIS: error= 2.09D-02 at cycle   3 NSaved=   3.
 NSaved= 3 IEnMin= 3 EnMin= -228.683307865502     IErMin= 2 ErrMin= 1.99D-02
 ErrMax= 2.09D-02  0.00D+00 EMaxC= 1.00D-01 BMatC= 3.13D-02 BMatP= 2.47D-02
 IDIUse=2 WtCom= 0.00D+00 WtEn= 1.00D+00
 Coeff-En:   0.000D+00 0.000D+00 0.100D+01
 Coeff:      0.000D+00 0.000D+00 0.100D+01
 Gap=     0.171 Goal=   None    Shift=    0.000
 RMSDP=7.29D-03 MaxDP=1.08D-01 DE=-1.18D-01 OVMax= 2.74D-01

 Cycle   4  Pass 1  IDiag  1:
 E= -228.500303051583     Delta-E=        0.183004813919 Rises=F Damp=F
 DIIS: error= 6.75D-02 at cycle   4 NSaved=   4.
 NSaved= 4 IEnMin= 3 EnMin= -228.683307865502     IErMin= 2 ErrMin= 1.99D-02
 ErrMax= 6.75D-02  0.00D+00 EMaxC= 1.00D-01 BMatC= 2.61D-01 BMatP= 2.47D-02
 IDIUse=2 WtCom= 0.00D+00 WtEn= 1.00D+00
 Coeff-En:   0.000D+00 0.000D+00 0.827D+00 0.173D+00
 Coeff:      0.000D+00 0.000D+00 0.827D+00 0.173D+00
 Gap=     0.157 Goal=   None    Shift=    0.000
 RMSDP=5.55D-03 MaxDP=1.88D-01 DE= 1.83D-01 OVMax= 1.82D-01

 Cycle   5  Pass 1  IDiag  1:
 E= -228.696470144965     Delta-E=       -0.196167093382 Rises=F Damp=F
 DIIS: error= 1.68D-02 at cycle   5 NSaved=   5.
 NSaved= 5 IEnMin= 5 EnMin= -228.696470144965     IErMin= 5 ErrMin= 1.68D-02
 ErrMax= 1.68D-02  0.00D+00 EMaxC= 1.00D-01 BMatC= 1.72D-02 BMatP= 2.47D-02
 IDIUse=3 WtCom= 8.32D-01 WtEn= 1.68D-01
 Coeff-Com: -0.115D-01 0.504D-01 0.461D+00 0.394D-01 0.460D+00
 Coeff-En:   0.000D+00 0.000D+00 0.384D+00 0.000D+00 0.616D+00
 Coeff:     -0.960D-02 0.419D-01 0.448D+00 0.328D-01 0.487D+00
 Gap=     0.170 Goal=   None    Shift=    0.000
 RMSDP=1.28D-03 MaxDP=2.93D-02 DE=-1.96D-01 OVMax= 3.27D-02

 Cycle   6  Pass 1  IDiag  1:
 E= -228.711876903079     Delta-E=       -0.015406758115 Rises=F Damp=F
 DIIS: error= 6.33D-04 at cycle   6 NSaved=   6.
 NSaved= 6 IEnMin= 6 EnMin= -228.711876903079     IErMin= 6 ErrMin= 6.33D-04
 ErrMax= 6.33D-04  0.00D+00 EMaxC= 1.00D-01 BMatC= 5.08D-05 BMatP= 1.72D-02
 IDIUse=3 WtCom= 9.94D-01 WtEn= 6.33D-03
 Coeff-Com: -0.987D-02 0.118D-01 0.925D-01-0.145D-01 0.181D+00 0.739D+00
 Coeff-En:   0.000D+00 0.000D+00 0.000D+00 0.000D+00 0.000D+00 0.100D+01
 Coeff:     -0.981D-02 0.117D-01 0.919D-01-0.144D-01 0.180D+00 0.741D+00
 Gap=     0.169 Goal=   None    Shift=    0.000
 RMSDP=6.26D-05 MaxDP=1.41D-03 DE=-1.54D-02 OVMax= 1.33D-03

 Cycle   7  Pass 1  IDiag  1:
 E= -228.711914347741     Delta-E=       -0.000037444662 Rises=F Damp=F
 DIIS: error= 2.21D-04 at cycle   7 NSaved=   7.
 NSaved= 7 IEnMin= 7 EnMin= -228.711914347741     IErMin= 7 ErrMin= 2.21D-04
 ErrMax= 2.21D-04  0.00D+00 EMaxC= 1.00D-01 BMatC= 3.14D-06 BMatP= 5.08D-05
 IDIUse=3 WtCom= 9.98D-01 WtEn= 2.21D-03
 Coeff-Com: -0.499D-02 0.678D-02 0.370D-01-0.873D-02 0.784D-01 0.343D+00
 Coeff-Com:  0.548D+00
 Coeff-En:   0.000D+00 0.000D+00 0.000D+00 0.000D+00 0.000D+00 0.000D+00
 Coeff-En:   0.100D+01
 Coeff:     -0.498D-02 0.677D-02 0.369D-01-0.872D-02 0.783D-01 0.342D+00
 Coeff:      0.549D+00
 Gap=     0.169 Goal=   None    Shift=    0.000
 RMSDP=3.93D-05 MaxDP=1.66D-03 DE=-3.74D-05 OVMax= 5.42D-04

 Cycle   8  Pass 1  IDiag  1:
 E= -228.711916838673     Delta-E=       -0.000002490932 Rises=F Damp=F
 DIIS: error= 6.93D-05 at cycle   8 NSaved=   8.
 NSaved= 8 IEnMin= 8 EnMin= -228.711916838673     IErMin= 8 ErrMin= 6.93D-05
 ErrMax= 6.93D-05  0.00D+00 EMaxC= 1.00D-01 BMatC= 3.08D-07 BMatP= 3.14D-06
 IDIUse=1 WtCom= 1.00D+00 WtEn= 0.00D+00
 Coeff-Com:  0.254D-03-0.415D-03 0.374D-02-0.853D-03 0.501D-02 0.203D-01
 Coeff-Com:  0.237D+00 0.735D+00
 Coeff:      0.254D-03-0.415D-03 0.374D-02-0.853D-03 0.501D-02 0.203D-01
 Coeff:      0.237D+00 0.735D+00
 Gap=     0.169 Goal=   None    Shift=    0.000
 RMSDP=5.58D-06 MaxDP=7.10D-05 DE=-2.49D-06 OVMax= 1.67D-04

 Cycle   9  Pass 1  IDiag  1:
 E= -228.711917146438     Delta-E=       -0.000000307765 Rises=F Damp=F
 DIIS: error= 8.80D-06 at cycle   9 NSaved=   9.
 NSaved= 9 IEnMin= 9 EnMin= -228.711917146438     IErMin= 9 ErrMin= 8.80D-06
 ErrMax= 8.80D-06  0.00D+00 EMaxC= 1.00D-01 BMatC= 3.14D-09 BMatP= 3.08D-07
 IDIUse=1 WtCom= 1.00D+00 WtEn= 0.00D+00
 Coeff-Com:  0.137D-03-0.231D-03 0.332D-03-0.202D-04 0.105D-03 0.274D-02
 Coeff-Com:  0.446D-01 0.164D+00 0.788D+00
 Coeff:      0.137D-03-0.231D-03 0.332D-03-0.202D-04 0.105D-03 0.274D-02
 Coeff:      0.446D-01 0.164D+00 0.788D+00
 Gap=     0.169 Goal=   None    Shift=    0.000
 RMSDP=1.19D-06 MaxDP=3.55D-05 DE=-3.08D-07 OVMax= 2.77D-05

 Cycle  10  Pass 1  IDiag  1:
 E= -228.711917149456     Delta-E=       -0.000000003018 Rises=F Damp=F
 DIIS: error= 7.25D-07 at cycle  10 NSaved=  10.
 NSaved=10 IEnMin=10 EnMin= -228.711917149456     IErMin=10 ErrMin= 7.25D-07
 ErrMax= 7.25D-07  0.00D+00 EMaxC= 1.00D-01 BMatC= 4.90D-11 BMatP= 3.14D-09
 IDIUse=1 WtCom= 1.00D+00 WtEn= 0.00D+00
 Coeff-Com:  0.109D-04-0.154D-04-0.430D-04 0.129D-04-0.944D-04 0.641D-04
 Coeff-Com:  0.192D-02 0.148D-01 0.175D+00 0.809D+00
 Coeff:      0.109D-04-0.154D-04-0.430D-04 0.129D-04-0.944D-04 0.641D-04
 Coeff:      0.192D-02 0.148D-01 0.175D+00 0.809D+00
 Gap=     0.169 Goal=   None    Shift=    0.000
 RMSDP=1.06D-07 MaxDP=2.50D-06 DE=-3.02D-09 OVMax= 2.10D-06

 Cycle  11  Pass 1  IDiag  1:
 E= -228.711917149503     Delta-E=       -0.000000000046 Rises=F Damp=F
 DIIS: error= 2.85D-07 at cycle  11 NSaved=  11.
 NSaved=11 IEnMin=11 EnMin= -228.711917149503     IErMin=11 ErrMin= 2.85D-07
 ErrMax= 2.85D-07  0.00D+00 EMaxC= 1.00D-01 BMatC= 2.99D-12 BMatP= 4.90D-11
 IDIUse=1 WtCom= 1.00D+00 WtEn= 0.00D+00
 Coeff-Com:  0.135D-05-0.622D-06-0.945D-05 0.114D-05-0.180D-04-0.744D-04
 Coeff-Com: -0.328D-04 0.239D-02 0.317D-01 0.189D+00 0.777D+00
 Coeff:      0.135D-05-0.622D-06-0.945D-05 0.114D-05-0.180D-04-0.744D-04
 Coeff:     -0.328D-04 0.239D-02 0.317D-01 0.189D+00 0.777D+00
 Gap=     0.169 Goal=   None    Shift=    0.000
 RMSDP=2.37D-08 MaxDP=7.37D-07 DE=-4.63D-11 OVMax= 8.38D-07

 Cycle  12  Pass 1  IDiag  1:
 E= -228.711917149506     Delta-E=       -0.000000000003 Rises=F Damp=F
 DIIS: error= 2.70D-08 at cycle  12 NSaved=  12.
 NSaved=12 IEnMin=12 EnMin= -228.711917149506     IErMin=12 ErrMin= 2.70D-08
 ErrMax= 2.70D-08  0.00D+00 EMaxC= 1.00D-01 BMatC= 4.75D-14 BMatP= 2.99D-12
 IDIUse=1 WtCom= 1.00D+00 WtEn= 0.00D+00
 Coeff-Com:  0.243D-06-0.151D-06-0.692D-06-0.225D-07-0.136D-05-0.194D-04
 Coeff-Com: -0.989D-04 0.109D-03 0.282D-02 0.267D-01 0.211D+00 0.759D+00
 Coeff:      0.243D-06-0.151D-06-0.692D-06-0.225D-07-0.136D-05-0.194D-04
 Coeff:     -0.989D-04 0.109D-03 0.282D-02 0.267D-01 0.211D+00 0.759D+00
 Gap=     0.169 Goal=   None    Shift=    0.000
 RMSDP=4.31D-09 MaxDP=1.62D-07 DE=-3.07D-12 OVMax= 6.91D-08

 Error on total polarization charges =  0.01280
 SCF Done:  E(RB-P86) =  -228.711917150     A.U. after   12 cycles
            NFock= 12  Conv=0.43D-08     -V/T= 2.0040
 KE= 2.277919107159D+02 PE=-7.680615073695D+02 EE= 2.003572842302D+02
 Leave Link  502 at Tue Feb 23 00:11:28 2021, MaxMem=   104857600 cpu:              61.5 elap:               2.2
 (Enter /sw/arch/RedHatEnterpriseServer7/EB_production/2019/software/Gaussian/g16.c01/l601.exe)
 Copying SCF densities to generalized density rwf, IOpCl= 0 IROHF=0.

 **********************************************************************

            Population analysis using the SCF Density.

 **********************************************************************

 Orbital symmetries:
       Occupied  (A) (A) (A) (A) (A) (A) (A) (A) (A) (A) (A) (A)
                 (A) (A) (A) (A)
       Virtual   (A) (A) (A) (A) (A) (A) (A) (A) (A) (A) (A) (A)
                 (A) (A) (A) (A) (A) (A) (A) (A) (A) (A) (A) (A)
                 (A) (A) (A) (A) (A) (A) (A) (A) (A) (A) (A) (A)
                 (A) (A) (A) (A) (A) (A) (A) (A) (A) (A) (A) (A)
                 (A) (A) (A) (A) (A) (A) (A) (A) (A) (A) (A) (A)
                 (A) (A) (A) (A) (A) (A) (A) (A) (A) (A) (A) (A)
                 (A) (A) (A) (A) (A) (A)
 The electronic state is 1-A.
 Alpha  occ. eigenvalues --  -18.69115 -18.67817  -9.95525  -9.87527  -0.90827
 Alpha  occ. eigenvalues --   -0.80050  -0.65061  -0.43456  -0.38177  -0.36844
 Alpha  occ. eigenvalues --   -0.35401  -0.30653  -0.29070  -0.18990  -0.18886
 Alpha  occ. eigenvalues --   -0.15503
 Alpha virt. eigenvalues --    0.01429   0.04586   0.10504   0.12202   0.13126
 Alpha virt. eigenvalues --    0.15679   0.18958   0.21498   0.22097   0.25466
 Alpha virt. eigenvalues --    0.29762   0.34195   0.39176   0.40362   0.41077
 Alpha virt. eigenvalues --    0.42745   0.43456   0.48710   0.49682   0.50653
 Alpha virt. eigenvalues --    0.55198   0.56983   0.57104   0.63445   0.75934
 Alpha virt. eigenvalues --    0.86658   1.11508   1.16845   1.24880   1.25591
 Alpha virt. eigenvalues --    1.26794   1.33972   1.39996   1.40766   1.47188
 Alpha virt. eigenvalues --    1.53757   1.53957   1.55537   1.56403   1.73490
 Alpha virt. eigenvalues --    1.73705   1.89851   2.02961   2.11366   2.14701
 Alpha virt. eigenvalues --    2.18615   2.21675   2.28085   2.42748   2.44941
 Alpha virt. eigenvalues --    2.48402   2.53538   2.56511   2.57732   2.59767
 Alpha virt. eigenvalues --    2.61047   2.62848   2.64998   2.66044   2.66518
 Alpha virt. eigenvalues --    2.68712   2.70825   2.90810   2.98861   3.01289
 Alpha virt. eigenvalues --    3.02671   3.11208   3.16297   3.22122   3.26038
 Alpha virt. eigenvalues --    3.26280   3.49204   3.98000   4.08727  21.66265
 Alpha virt. eigenvalues --   21.81079  43.08494  43.14074
          Condensed to atoms (all electrons):
               1          2          3          4          5          6
     1  C    6.166738  -0.174663  -0.256735  -0.237721   0.251667   0.312611
     2  C   -0.174663   4.945419   0.585947   0.573026   0.018606   0.005698
     3  O   -0.256735   0.585947   8.295426  -0.193421   0.016188   0.010042
     4  O   -0.237721   0.573026  -0.193421   8.397650   0.032844   0.003967
     5  H    0.251667   0.018606   0.016188   0.032844   0.600172  -0.015366
     6  H    0.312611   0.005698   0.010042   0.003967  -0.015366   0.567424
     7  H    0.312614   0.005697   0.010042   0.003966  -0.015365  -0.019768
               7
     1  C    0.312614
     2  C    0.005697
     3  O    0.010042
     4  O    0.003966
     5  H   -0.015365
     6  H   -0.019768
     7  H    0.567419
 Mulliken charges:
               1
     1  C   -0.374510
     2  C    0.040269
     3  O   -0.467488
     4  O   -0.580311
     5  H    0.111253
     6  H    0.135392
     7  H    0.135394
 Sum of Mulliken charges =  -1.00000
 Mulliken charges with hydrogens summed into heavy atoms:
               1
     1  C    0.007530
     2  C    0.040269
     3  O   -0.467488
     4  O   -0.580311
 Electronic spatial extent (au):  <R**2>=            257.2584
 Charge=             -1.0000 electrons
 Dipole moment (field-independent basis, Debye):
    X=              5.7563    Y=              0.0459    Z=              0.0000  Tot=              5.7565
 Quadrupole moment (field-independent basis, Debye-Ang):
   XX=            -30.9774   YY=            -35.5390   ZZ=            -25.1097
   XY=             -1.1660   XZ=             -0.0000   YZ=             -0.0000
 Traceless Quadrupole moment (field-independent basis, Debye-Ang):
   XX=             -0.4353   YY=             -4.9969   ZZ=              5.4323
   XY=             -1.1660   XZ=             -0.0000   YZ=             -0.0000
 Octapole moment (field-independent basis, Debye-Ang**2):
  XXX=              4.1615  YYY=             -1.0654  ZZZ=             -0.0000  XYY=              6.9599
  XXY=              2.5832  XXZ=             -0.0000  XZZ=              0.7263  YZZ=              1.1369
  YYZ=              0.0000  XYZ=             -0.0000
 Hexadecapole moment (field-independent basis, Debye-Ang**3):
 XXXX=           -189.3616 YYYY=           -147.0520 ZZZZ=            -32.2619 XXXY=             -1.1831
 XXXZ=             -0.0001 YYYX=             -2.2833 YYYZ=             -0.0000 ZZZX=             -0.0000
 ZZZY=             -0.0000 XXYY=            -56.7667 XXZZ=            -33.8917 YYZZ=            -28.1516
 XXYZ=             -0.0000 YYXZ=              0.0000 ZZXY=              0.8249
 N-N= 1.112003952740D+02 E-N=-7.680615080134D+02  KE= 2.277919107159D+02
 No NMR shielding tensors so no spin-rotation constants.
 Leave Link  601 at Tue Feb 23 00:11:28 2021, MaxMem=   104857600 cpu:               2.6 elap:               0.1
 (Enter /sw/arch/RedHatEnterpriseServer7/EB_production/2019/software/Gaussian/g16.c01/l701.exe)
 ... and contract with generalized density number  0.
 Compute integral first derivatives.
 R6Disp: Adding Grimme-D3 dispersion energy 1st derivatives to the gradient.
 PrsmSu:  requested number of processors reduced to:  30 ShMem   1 Linda.
 D1PCM: PCM CHGder 1st derivatives, ID1Alg=3 FixD1E=F DoIter=F DoCFld=F I1PDM=0.
 GePol: Maximum number of non-zero 1st derivatives   =     224
 CoulSu:  requested number of processors reduced to:  30 ShMem   1 Linda.
 CoulSu:  requested number of processors reduced to:  30 ShMem   1 Linda.
 Leave Link  701 at Tue Feb 23 00:11:29 2021, MaxMem=   104857600 cpu:              15.9 elap:               0.6
 (Enter /sw/arch/RedHatEnterpriseServer7/EB_production/2019/software/Gaussian/g16.c01/l702.exe)
 L702 exits ... SP integral derivatives will be done elsewhere.
 Leave Link  702 at Tue Feb 23 00:11:29 2021, MaxMem=   104857600 cpu:               0.6 elap:               0.0
 (Enter /sw/arch/RedHatEnterpriseServer7/EB_production/2019/software/Gaussian/g16.c01/l703.exe)
 Integral derivatives from FoFJK, PRISM(SPDF).
 Compute integral first derivatives, UseDBF=F ICtDFT=           0.
 Calling FoFJK, ICntrl=      2527 FMM=F ISym2X=0 I1Cent= 0 IOpClX= 0 NMat=1 NMatS=1 NMatT=0.
 FoFJK:  IHMeth= 1 ICntrl=    2527 DoSepK=F KAlg= 0 I1Cent=           0 FoldK=F
 IRaf=         0 NMat=       1 IRICut=       1 DoRegI=T DoRafI=F ISym2E= 0 IDoP0=0 IntGTp=1.
 FoFCou: FMM=F IPFlag=           0 FMFlag=      100000 FMFlg1=         800
         NFxFlg=           0 DoJE=F BraDBF=F KetDBF=F FulRan=T
         wScrn=  0.000000 ICntrl=      2527 IOpCl=  0 I1Cent=           0 NGrid=           0
         NMat0=    1 NMatS0=      1 NMatT0=    0 NMatD0=    1 NMtDS0=    0 NMtDT0=    0
 Symmetry not used in FoFCou.
 Leave Link  703 at Tue Feb 23 00:11:30 2021, MaxMem=   104857600 cpu:              10.4 elap:               0.4
 (Enter /sw/arch/RedHatEnterpriseServer7/EB_production/2019/software/Gaussian/g16.c01/l716.exe)
 Dipole        = 2.26471059D+00 1.80574799D-02 1.30119007D-06
 ***** Axes restored to original set *****
 -------------------------------------------------------------------
 Center     Atomic                   Forces (Hartrees/Bohr)
 Number     Number              X              Y              Z
 -------------------------------------------------------------------
      1        6           0.022951098   -0.004706016    0.003034507
      2        6          -0.063364236   -0.071933702    0.013827716
      3        8          -0.002307968    0.026669261   -0.007151336
      4        8           0.033008358    0.041211702   -0.008180877
      5        1           0.004829903   -0.001905934    0.000876617
      6        1           0.002181982    0.006195475    0.002100809
      7        1           0.002700863    0.004469213   -0.004507436
 -------------------------------------------------------------------
 Cartesian Forces:  Max     0.071933702 RMS     0.025527083
 Leave Link  716 at Tue Feb 23 00:11:30 2021, MaxMem=   104857600 cpu:               1.1 elap:               0.1
 (Enter /sw/arch/RedHatEnterpriseServer7/EB_production/2019/software/Gaussian/g16.c01/l103.exe)

 GradGradGradGradGradGradGradGradGradGradGradGradGradGradGradGradGradGrad
 Berny optimization.
 FormGI is forming the generalized inverse of G from B-inverse, IUseBI=4.
 Internal  Forces:  Max     0.049517812 RMS     0.016339561
 Search for a local minimum.
 Step number   1 out of a maximum of   31
 All quantities printed in internal units (Hartrees-Bohrs-Radians)
 RMS Force = .16340D-01 SwitMx=.10000D-02 MixMth= 1
 Mixed Optimization -- RFO/linear search
 Second derivative matrix not updated -- first step.
 ITU=  0
     Eigenvalues ---    0.01184   0.01184   0.07631   0.07709   0.16000
     Eigenvalues ---    0.16000   0.16000   0.25000   0.25000   0.34596
     Eigenvalues ---    0.34675   0.34676   0.35935   0.54513   0.82777
 RFO step:  Lambda=-1.40569978D-02 EMin= 1.18425225D-02
 Linear search not attempted -- first point.
 Iteration  1 RMS(Cart)=  0.03640620 RMS(Int)=  0.00158183
 Iteration  2 RMS(Cart)=  0.00164721 RMS(Int)=  0.00009523
 Iteration  3 RMS(Cart)=  0.00000193 RMS(Int)=  0.00009522
 Iteration  4 RMS(Cart)=  0.00000000 RMS(Int)=  0.00009522
 ITry= 1 IFail=0 DXMaxC= 9.77D-02 DCOld= 1.00D+10 DXMaxT= 3.00D-01 DXLimC= 3.00D+00 Rises=F
 Variable       Old X    -DE/DX   Delta X   Delta X   Delta X     New X
                                 (Linear)    (Quad)   (Total)
    R1        2.77483   0.03258   0.00000   0.08726   0.08726   2.86209
    R2        2.06337   0.00449   0.00000   0.01247   0.01247   2.07584
    R3        2.06205   0.00625   0.00000   0.01732   0.01732   2.07937
    R4        2.06204   0.00625   0.00000   0.01733   0.01733   2.07937
    R5        2.36452   0.02115   0.00000   0.02512   0.02512   2.38964
    R6        2.55568  -0.04952   0.00000  -0.08855  -0.08855   2.46712
    A1        1.92937   0.00414   0.00000   0.02869   0.02846   1.95783
    A2        1.91485   0.00110   0.00000   0.00388   0.00376   1.91861
    A3        1.91486   0.00110   0.00000   0.00388   0.00375   1.91861
    A4        1.89931  -0.00151   0.00000  -0.00380  -0.00401   1.89530
    A5        1.89932  -0.00151   0.00000  -0.00381  -0.00402   1.89531
    A6        1.90583  -0.00346   0.00000  -0.02969  -0.02971   1.87612
    A7        2.10089  -0.01118   0.00000  -0.04233  -0.04233   2.05856
    A8        2.11001  -0.02006   0.00000  -0.07597  -0.07597   2.03404
    A9        2.07229   0.03124   0.00000   0.11829   0.11829   2.19058
    D1        3.14159   0.00000   0.00000  -0.00000  -0.00000   3.14158
    D2       -0.00001   0.00000   0.00000   0.00001   0.00001   0.00000
    D3        1.04686  -0.00145   0.00000  -0.01586  -0.01593   1.03093
    D4       -2.09474  -0.00144   0.00000  -0.01584  -0.01592  -2.11066
    D5       -1.04685   0.00144   0.00000   0.01584   0.01591  -1.03094
    D6        2.09474   0.00144   0.00000   0.01586   0.01593   2.11067
         Item               Value     Threshold  Converged?
 Maximum Force            0.049518     0.000450     NO 
 RMS     Force            0.016340     0.000300     NO 
 Maximum Displacement     0.097738     0.001800     NO 
 RMS     Displacement     0.035783     0.001200     NO 
 Predicted change in Energy=-7.318522D-03
 Lowest energy point so far.  Saving SCF results.
 GradGradGradGradGradGradGradGradGradGradGradGradGradGradGradGradGradGrad

 Leave Link  103 at Tue Feb 23 00:11:30 2021, MaxMem=   104857600 cpu:               6.0 elap:               0.2
 (Enter /sw/arch/RedHatEnterpriseServer7/EB_production/2019/software/Gaussian/g16.c01/l202.exe)
                          Input orientation:                          
 ---------------------------------------------------------------------
 Center     Atomic      Atomic             Coordinates (Angstroms)
 Number     Number       Type             X           Y           Z
 ---------------------------------------------------------------------
      1          6           0        1.397642    0.451963    0.017668
      2          6           0       -0.066231    0.063666    0.004283
      3          8           0       -0.912829    0.954082   -0.294873
      4          8           0       -0.343830   -1.175724    0.306442
      5          1           0        2.047715   -0.390926    0.288991
      6          1           0        1.562635    1.268026    0.737112
      7          1           0        1.696989    0.820543   -0.974964
 ---------------------------------------------------------------------
                    Distance matrix (angstroms):
                    1          2          3          4          5
     1  C    0.000000
     2  C    1.514555   0.000000
     3  O    2.384969   1.264541   0.000000
     4  O    2.401141   1.305545   2.285040   0.000000
     5  H    1.098487   2.180935   3.303749   2.517082   0.000000
     6  H    1.100355   2.154234   2.700273   3.129217   1.785563
     7  H    1.100354   2.154236   2.700279   3.129222   1.785567
                    6          7
     6  H    0.000000
     7  H    1.774682   0.000000
 Stoichiometry    C2H3O2(1-)
 Framework group  C1[X(C2H3O2)]
 Deg. of freedom    15
 Full point group                 C1      NOp   1
 RotChk:  IX=3 Diff= 1.37D-01
 Largest Abelian subgroup         C1      NOp   1
 Largest concise Abelian subgroup C1      NOp   1
                         Standard orientation:                         
 ---------------------------------------------------------------------
 Center     Atomic      Atomic             Coordinates (Angstroms)
 Number     Number       Type             X           Y           Z
 ---------------------------------------------------------------------
      1          6           0        1.340187   -0.040978   -0.000000
      2          6           0       -0.173202    0.018447   -0.000004
      3          8           0       -0.721544    1.157914    0.000001
      4          8           0       -0.801970   -1.125711    0.000001
      5          1           0        1.714574   -1.073697    0.000005
      6          1           0        1.735810    0.475631    0.887343
      7          1           0        1.735817    0.475631   -0.887339
 ---------------------------------------------------------------------
 Rotational constants (GHZ):          11.2464824           9.9659859           5.4651595
 Leave Link  202 at Tue Feb 23 00:11:30 2021, MaxMem=   104857600 cpu:               0.4 elap:               0.0
 (Enter /sw/arch/RedHatEnterpriseServer7/EB_production/2019/software/Gaussian/g16.c01/l301.exe)
 Standard basis: TZVP (5D, 7F)
 Ernie: Thresh=  0.10000D-02 Tol=  0.10000D-05 Strict=F.
 There are    98 symmetry adapted cartesian basis functions of A   symmetry.
 There are    94 symmetry adapted basis functions of A   symmetry.
    94 basis functions,   164 primitive gaussians,    98 cartesian basis functions
    16 alpha electrons       16 beta electrons
       nuclear repulsion energy       110.9313114381 Hartrees.
 IExCor=  404 DFT=T Ex=B Corr=P86 ExCW=0 ScaHFX=  0.000000
 ScaDFX=  1.000000  1.000000  1.000000  1.000000 ScalE2=  1.000000  1.000000
 IRadAn=      5 IRanWt=     -1 IRanGd=            0 ICorTp=0 IEmpDi=131
 NAtoms=    7 NActive=    7 NUniq=    7 SFac= 1.00D+00 NAtFMM=   60 NAOKFM=F Big=F
 Integral buffers will be    131072 words long.
 Raffenetti 2 integral format.
 Two-electron integral symmetry is turned on.
 R6Disp:  Grimme-D3 Dispersion energy=       -0.0028329151 Hartrees.
 Nuclear repulsion after empirical dispersion term =      110.9284785230 Hartrees.
 ------------------------------------------------------------------------------
 Polarizable Continuum Model (PCM)
 =================================
 Model                : PCM.
 Atomic radii         : UFF (Universal Force Field).
 Polarization charges : Total charges.
 Charge compensation  : None.
 Solution method      : On-the-fly selection.
 Cavity type          : Scaled VdW (van der Waals Surface) (Alpha=1.100).
 Cavity algorithm     : GePol (No added spheres)
                        Default sphere list used, NSphG=    7.
                        Lebedev-Laikov grids with approx.  5.0 points / Ang**2.
                        Smoothing algorithm: York/Karplus (Gamma=1.0000).
                        Polarization charges: spherical gaussians, with
                                              point-specific exponents (IZeta= 3).
                        Self-potential: point-specific (ISelfS= 7).
                        Self-field    : sphere-specific E.n sum rule (ISelfD= 2).
 1st derivatives      : Analytical E(r).r(x)/FMM algorithm (CHGder, D1EAlg=3).
                        Cavity 1st derivative terms included.
 Solvent              : Water, Eps=  78.355300 Eps(inf)=   1.777849
 ------------------------------------------------------------------------------
 Spheres list:
 ISph  on   Nord     Re0    Alpha      Xe            Ye            Ze
    1   C      1    1.9255  1.100      1.340187     -0.040978     -0.000000
    2   C      2    1.9255  1.100     -0.173202      0.018447     -0.000004
    3   O      3    1.7500  1.100     -0.721544      1.157914      0.000001
    4   O      4    1.7500  1.100     -0.801970     -1.125711      0.000001
    5   H      5    1.4430  1.100      1.714574     -1.073697      0.000005
    6   H      6    1.4430  1.100      1.735810      0.475631      0.887343
    7   H      7    1.4430  1.100      1.735817      0.475631     -0.887339
 ------------------------------------------------------------------------------
 GePol: Number of generator spheres                  =       7
 GePol: Total number of spheres                      =       7
 GePol: Number of exposed spheres                    =       7 (100.00%)
 GePol: Number of points                             =     811
 GePol: Average weight of points                     =       0.13
 GePol: Minimum weight of points                     =   0.98D-08
 GePol: Maximum weight of points                     =    0.20299
 GePol: Number of points with low weight             =      28
 GePol: Fraction of low-weight points (<1% of avg)   =       3.45%
 GePol: Cavity surface area                          =    108.272 Ang**2
 GePol: Cavity volume                                =     91.202 Ang**3
 Leave Link  301 at Tue Feb 23 00:11:30 2021, MaxMem=   104857600 cpu:               1.8 elap:               0.1
 (Enter /sw/arch/RedHatEnterpriseServer7/EB_production/2019/software/Gaussian/g16.c01/l302.exe)
 NPDir=0 NMtPBC=     1 NCelOv=     1 NCel=       1 NClECP=     1 NCelD=      1
         NCelK=      1 NCelE2=     1 NClLst=     1 CellRange=     0.0.
 One-electron integrals computed using PRISM.
 One-electron integral symmetry used in STVInt
 PrsmSu:  requested number of processors reduced to:  30 ShMem   1 Linda.
 NBasis=    94 RedAO= T EigKep=  7.50D-04  NBF=    94
 NBsUse=    94 1.00D-06 EigRej= -1.00D+00 NBFU=    94
 Precomputing XC quadrature grid using
 IXCGrd= 4 IRadAn=           5 IRanWt=          -1 IRanGd=           0 AccXCQ= 0.00D+00.
 Generated NRdTot=       0 NPtTot=           0 NUsed=           0 NTot=          32
 NSgBfM=    98    98    98    98    98 MxSgAt=     7 MxSgA2=     7.
 Leave Link  302 at Tue Feb 23 00:11:31 2021, MaxMem=   104857600 cpu:               5.3 elap:               0.2
 (Enter /sw/arch/RedHatEnterpriseServer7/EB_production/2019/software/Gaussian/g16.c01/l303.exe)
 DipDrv:  MaxL=1.
 Leave Link  303 at Tue Feb 23 00:11:31 2021, MaxMem=   104857600 cpu:               0.7 elap:               0.0
 (Enter /sw/arch/RedHatEnterpriseServer7/EB_production/2019/software/Gaussian/g16.c01/l401.exe)
 Initial guess from the checkpoint file:  "QTBSBXVTEAMEQO-UHFFFAOYSA-M.chk"
 B after Tr=    -0.000000    0.000000    0.000000
         Rot=    0.998758   -0.000000    0.000000   -0.049821 Ang=  -5.71 deg.
 Guess basis will be translated and rotated to current coordinates.
 JPrj=2 DoOrth=T DoCkMO=T.
 Generating alternative initial guess.
 ExpMin= 9.52D-02 ExpMax= 2.70D+04 ExpMxC= 9.22D+02 IAcc=3 IRadAn=         5 AccDes= 0.00D+00
 Harris functional with IExCor=  404 and IRadAn=       5 diagonalized for initial guess.
 HarFok:  IExCor=  404 AccDes= 0.00D+00 IRadAn=         5 IDoV= 1 UseB2=F ITyADJ=14
 ICtDFT=  3500011 ScaDFX=  1.000000  1.000000  1.000000  1.000000
 FoFCou: FMM=F IPFlag=           0 FMFlag=      100000 FMFlg1=           0
         NFxFlg=           0 DoJE=T BraDBF=F KetDBF=T FulRan=T
         wScrn=  0.000000 ICntrl=       500 IOpCl=  0 I1Cent=   200000004 NGrid=           0
         NMat0=    1 NMatS0=      1 NMatT0=    0 NMatD0=    1 NMtDS0=    0 NMtDT0=    0
 Petite list used in FoFCou.
 Harris En= -228.879805724974    
 Leave Link  401 at Tue Feb 23 00:11:31 2021, MaxMem=   104857600 cpu:               7.7 elap:               0.3
 (Enter /sw/arch/RedHatEnterpriseServer7/EB_production/2019/software/Gaussian/g16.c01/l502.exe)
 Keep J ints in memory in canonical form, NReq=39495675.
 FoFCou: FMM=F IPFlag=           0 FMFlag=           0 FMFlg1=           0
         NFxFlg=           0 DoJE=F BraDBF=F KetDBF=F FulRan=T
         wScrn=  0.000000 ICntrl=       600 IOpCl=  0 I1Cent=           0 NGrid=           0
         NMat0=    1 NMatS0=   4465 NMatT0=    0 NMatD0=    1 NMtDS0=    0 NMtDT0=    0
 Symmetry not used in FoFCou.
 Two-electron integral symmetry not used.
 Closed shell SCF:
 Using DIIS extrapolation, IDIIS=  1040.
 NGot=   104857600 LenX=    94863637 LenY=    94853592
 Requested convergence on RMS density matrix=1.00D-08 within 128 cycles.
 Requested convergence on MAX density matrix=1.00D-06.
 Requested convergence on             energy=1.00D-06.
 No special actions if energy rises.

 Cycle   1  Pass 1  IDiag  1:
 Inv3:  Mode=1 IEnd=     1973163.
 Iteration    1 A*A^-1 deviation from unit magnitude is 3.11D-15 for    366.
 Iteration    1 A*A^-1 deviation from orthogonality  is 1.17D-15 for    690    183.
 Iteration    1 A^-1*A deviation from unit magnitude is 3.11D-15 for    366.
 Iteration    1 A^-1*A deviation from orthogonality  is 1.55D-15 for    653    288.
 E= -228.714833836912    
 DIIS: error= 4.49D-03 at cycle   1 NSaved=   1.
 NSaved= 1 IEnMin= 1 EnMin= -228.714833836912     IErMin= 1 ErrMin= 4.49D-03
 ErrMax= 4.49D-03  0.00D+00 EMaxC= 1.00D-01 BMatC= 4.20D-03 BMatP= 4.20D-03
 IDIUse=3 WtCom= 9.55D-01 WtEn= 4.49D-02
 Coeff-Com:  0.100D+01
 Coeff-En:   0.100D+01
 Coeff:      0.100D+01
 Gap=     0.586 Goal=   None    Shift=    0.000
 GapD=    0.586 DampG=2.000 DampE=1.000 DampFc=2.0000 IDamp=-1.
 RMSDP=2.31D-03 MaxDP=6.93D-02              OVMax= 3.64D-02

 Cycle   2  Pass 1  IDiag  1:
 E= -228.719778780021     Delta-E=       -0.004944943109 Rises=F Damp=F
 DIIS: error= 3.82D-03 at cycle   2 NSaved=   2.
 NSaved= 2 IEnMin= 2 EnMin= -228.719778780021     IErMin= 2 ErrMin= 3.82D-03
 ErrMax= 3.82D-03  0.00D+00 EMaxC= 1.00D-01 BMatC= 1.33D-03 BMatP= 4.20D-03
 IDIUse=3 WtCom= 9.62D-01 WtEn= 3.82D-02
 Coeff-Com:  0.291D+00 0.709D+00
 Coeff-En:   0.000D+00 0.100D+01
 Coeff:      0.280D+00 0.720D+00
 Gap=     0.182 Goal=   None    Shift=    0.000
 RMSDP=9.96D-04 MaxDP=3.61D-02 DE=-4.94D-03 OVMax= 2.00D-02

 Cycle   3  Pass 1  IDiag  1:
 E= -228.718735594836     Delta-E=        0.001043185185 Rises=F Damp=F
 DIIS: error= 4.91D-03 at cycle   3 NSaved=   3.
 NSaved= 3 IEnMin= 2 EnMin= -228.719778780021     IErMin= 2 ErrMin= 3.82D-03
 ErrMax= 4.91D-03  0.00D+00 EMaxC= 1.00D-01 BMatC= 2.65D-03 BMatP= 1.33D-03
 IDIUse=3 WtCom= 1.25D-01 WtEn= 8.75D-01
 Coeff-Com:  0.278D-01 0.577D+00 0.395D+00
 Coeff-En:   0.000D+00 0.636D+00 0.364D+00
 Coeff:      0.347D-02 0.629D+00 0.368D+00
 Gap=     0.188 Goal=   None    Shift=    0.000
 RMSDP=5.94D-04 MaxDP=1.74D-02 DE= 1.04D-03 OVMax= 1.74D-02

 Cycle   4  Pass 1  IDiag  1:
 E= -228.720606689338     Delta-E=       -0.001871094502 Rises=F Damp=F
 DIIS: error= 1.29D-03 at cycle   4 NSaved=   4.
 NSaved= 4 IEnMin= 4 EnMin= -228.720606689338     IErMin= 4 ErrMin= 1.29D-03
 ErrMax= 1.29D-03  0.00D+00 EMaxC= 1.00D-01 BMatC= 1.26D-04 BMatP= 1.33D-03
 IDIUse=3 WtCom= 9.87D-01 WtEn= 1.29D-02
 Coeff-Com:  0.108D-01 0.372D+00 0.234D+00 0.384D+00
 Coeff-En:   0.000D+00 0.472D-02 0.000D+00 0.995D+00
 Coeff:      0.107D-01 0.367D+00 0.231D+00 0.392D+00
 Gap=     0.188 Goal=   None    Shift=    0.000
 RMSDP=1.51D-04 MaxDP=3.17D-03 DE=-1.87D-03 OVMax= 4.54D-03

 Cycle   5  Pass 1  IDiag  1:
 E= -228.720690014012     Delta-E=       -0.000083324674 Rises=F Damp=F
 DIIS: error= 4.59D-04 at cycle   5 NSaved=   5.
 NSaved= 5 IEnMin= 5 EnMin= -228.720690014012     IErMin= 5 ErrMin= 4.59D-04
 ErrMax= 4.59D-04  0.00D+00 EMaxC= 1.00D-01 BMatC= 2.71D-05 BMatP= 1.26D-04
 IDIUse=3 WtCom= 9.95D-01 WtEn= 4.59D-03
 Coeff-Com:  0.518D-03 0.146D+00 0.968D-01 0.289D+00 0.467D+00
 Coeff-En:   0.000D+00 0.000D+00 0.000D+00 0.191D+00 0.809D+00
 Coeff:      0.516D-03 0.146D+00 0.964D-01 0.289D+00 0.469D+00
 Gap=     0.188 Goal=   None    Shift=    0.000
 RMSDP=4.94D-05 MaxDP=7.35D-04 DE=-8.33D-05 OVMax= 1.46D-03

 Cycle   6  Pass 1  IDiag  1:
 E= -228.720707628990     Delta-E=       -0.000017614978 Rises=F Damp=F
 DIIS: error= 1.25D-04 at cycle   6 NSaved=   6.
 NSaved= 6 IEnMin= 6 EnMin= -228.720707628990     IErMin= 6 ErrMin= 1.25D-04
 ErrMax= 1.25D-04  0.00D+00 EMaxC= 1.00D-01 BMatC= 1.59D-06 BMatP= 2.71D-05
 IDIUse=3 WtCom= 9.99D-01 WtEn= 1.25D-03
 Coeff-Com:  0.228D-03 0.647D-01 0.467D-01 0.147D+00 0.296D+00 0.445D+00
 Coeff-En:   0.000D+00 0.000D+00 0.000D+00 0.000D+00 0.473D-02 0.995D+00
 Coeff:      0.227D-03 0.646D-01 0.466D-01 0.147D+00 0.295D+00 0.446D+00
 Gap=     0.188 Goal=   None    Shift=    0.000
 RMSDP=1.10D-05 MaxDP=1.84D-04 DE=-1.76D-05 OVMax= 3.26D-04

 Cycle   7  Pass 1  IDiag  1:
 E= -228.720708962551     Delta-E=       -0.000001333560 Rises=F Damp=F
 DIIS: error= 7.97D-06 at cycle   7 NSaved=   7.
 NSaved= 7 IEnMin= 7 EnMin= -228.720708962551     IErMin= 7 ErrMin= 7.97D-06
 ErrMax= 7.97D-06  0.00D+00 EMaxC= 1.00D-01 BMatC= 1.10D-08 BMatP= 1.59D-06
 IDIUse=1 WtCom= 1.00D+00 WtEn= 0.00D+00
 Coeff-Com: -0.496D-04 0.458D-02 0.493D-02 0.134D-01 0.410D-01 0.105D+00
 Coeff-Com:  0.831D+00
 Coeff:     -0.496D-04 0.458D-02 0.493D-02 0.134D-01 0.410D-01 0.105D+00
 Coeff:      0.831D+00
 Gap=     0.188 Goal=   None    Shift=    0.000
 RMSDP=1.85D-06 MaxDP=6.76D-05 DE=-1.33D-06 OVMax= 4.40D-05

 Cycle   8  Pass 1  IDiag  1:
 E= -228.720708968988     Delta-E=       -0.000000006437 Rises=F Damp=F
 DIIS: error= 4.16D-06 at cycle   8 NSaved=   8.
 NSaved= 8 IEnMin= 8 EnMin= -228.720708968988     IErMin= 8 ErrMin= 4.16D-06
 ErrMax= 4.16D-06  0.00D+00 EMaxC= 1.00D-01 BMatC= 7.27D-10 BMatP= 1.10D-08
 IDIUse=1 WtCom= 1.00D+00 WtEn= 0.00D+00
 Coeff-Com: -0.165D-04 0.445D-03 0.326D-03 0.233D-02 0.446D-02 0.180D-01
 Coeff-Com:  0.172D+00 0.802D+00
 Coeff:     -0.165D-04 0.445D-03 0.326D-03 0.233D-02 0.446D-02 0.180D-01
 Coeff:      0.172D+00 0.802D+00
 Gap=     0.188 Goal=   None    Shift=    0.000
 RMSDP=4.86D-07 MaxDP=1.69D-05 DE=-6.44D-09 OVMax= 1.33D-05

 Cycle   9  Pass 1  IDiag  1:
 E= -228.720708969597     Delta-E=       -0.000000000610 Rises=F Damp=F
 DIIS: error= 5.98D-07 at cycle   9 NSaved=   9.
 NSaved= 9 IEnMin= 9 EnMin= -228.720708969597     IErMin= 9 ErrMin= 5.98D-07
 ErrMax= 5.98D-07  0.00D+00 EMaxC= 1.00D-01 BMatC= 2.88D-11 BMatP= 7.27D-10
 IDIUse=1 WtCom= 1.00D+00 WtEn= 0.00D+00
 Coeff-Com: -0.470D-05 0.196D-06-0.684D-04 0.631D-03 0.585D-03 0.500D-02
 Coeff-Com:  0.591D-01 0.421D+00 0.513D+00
 Coeff:     -0.470D-05 0.196D-06-0.684D-04 0.631D-03 0.585D-03 0.500D-02
 Coeff:      0.591D-01 0.421D+00 0.513D+00
 Gap=     0.188 Goal=   None    Shift=    0.000
 RMSDP=1.22D-07 MaxDP=5.28D-06 DE=-6.10D-10 OVMax= 1.51D-06

 Cycle  10  Pass 1  IDiag  1:
 E= -228.720708969624     Delta-E=       -0.000000000026 Rises=F Damp=F
 DIIS: error= 8.96D-08 at cycle  10 NSaved=  10.
 NSaved=10 IEnMin=10 EnMin= -228.720708969624     IErMin=10 ErrMin= 8.96D-08
 ErrMax= 8.96D-08  0.00D+00 EMaxC= 1.00D-01 BMatC= 9.41D-13 BMatP= 2.88D-11
 IDIUse=1 WtCom= 1.00D+00 WtEn= 0.00D+00
 Coeff-Com:  0.281D-06-0.514D-04-0.464D-04-0.896D-04-0.270D-03-0.620D-03
 Coeff-Com: -0.730D-03 0.302D-01 0.139D+00 0.833D+00
 Coeff:      0.281D-06-0.514D-04-0.464D-04-0.896D-04-0.270D-03-0.620D-03
 Coeff:     -0.730D-03 0.302D-01 0.139D+00 0.833D+00
 Gap=     0.188 Goal=   None    Shift=    0.000
 RMSDP=2.03D-08 MaxDP=8.12D-07 DE=-2.65D-11 OVMax= 2.51D-07

 Cycle  11  Pass 1  IDiag  1:
 E= -228.720708969626     Delta-E=       -0.000000000002 Rises=F Damp=F
 DIIS: error= 2.60D-08 at cycle  11 NSaved=  11.
 NSaved=11 IEnMin=11 EnMin= -228.720708969626     IErMin=11 ErrMin= 2.60D-08
 ErrMax= 2.60D-08  0.00D+00 EMaxC= 1.00D-01 BMatC= 2.68D-14 BMatP= 9.41D-13
 IDIUse=1 WtCom= 1.00D+00 WtEn= 0.00D+00
 Coeff-Com:  0.511D-07-0.133D-04-0.821D-05-0.362D-04-0.664D-04-0.228D-03
 Coeff-Com: -0.959D-03 0.715D-04 0.254D-01 0.211D+00 0.765D+00
 Coeff:      0.511D-07-0.133D-04-0.821D-05-0.362D-04-0.664D-04-0.228D-03
 Coeff:     -0.959D-03 0.715D-04 0.254D-01 0.211D+00 0.765D+00
 Gap=     0.188 Goal=   None    Shift=    0.000
 RMSDP=2.27D-09 MaxDP=5.61D-08 DE=-1.76D-12 OVMax= 7.67D-08

 Error on total polarization charges =  0.01317
 SCF Done:  E(RB-P86) =  -228.720708970     A.U. after   11 cycles
            NFock= 11  Conv=0.23D-08     -V/T= 2.0043
 KE= 2.277399970181D+02 PE=-7.674220808787D+02 EE= 2.000328963679D+02
 Leave Link  502 at Tue Feb 23 00:11:33 2021, MaxMem=   104857600 cpu:              63.2 elap:               2.3
 (Enter /sw/arch/RedHatEnterpriseServer7/EB_production/2019/software/Gaussian/g16.c01/l701.exe)
 ... and contract with generalized density number  0.
 Compute integral first derivatives.
 R6Disp: Adding Grimme-D3 dispersion energy 1st derivatives to the gradient.
 PrsmSu:  requested number of processors reduced to:  30 ShMem   1 Linda.
 D1PCM: PCM CHGder 1st derivatives, ID1Alg=3 FixD1E=F DoIter=F DoCFld=F I1PDM=0.
 GePol: Maximum number of non-zero 1st derivatives   =     233
 CoulSu:  requested number of processors reduced to:  30 ShMem   1 Linda.
 CoulSu:  requested number of processors reduced to:  30 ShMem   1 Linda.
 Leave Link  701 at Tue Feb 23 00:11:34 2021, MaxMem=   104857600 cpu:              15.0 elap:               0.5
 (Enter /sw/arch/RedHatEnterpriseServer7/EB_production/2019/software/Gaussian/g16.c01/l702.exe)
 L702 exits ... SP integral derivatives will be done elsewhere.
 Leave Link  702 at Tue Feb 23 00:11:35 2021, MaxMem=   104857600 cpu:               0.9 elap:               0.1
 (Enter /sw/arch/RedHatEnterpriseServer7/EB_production/2019/software/Gaussian/g16.c01/l703.exe)
 Integral derivatives from FoFJK, PRISM(SPDF).
 Compute integral first derivatives, UseDBF=F ICtDFT=           0.
 Calling FoFJK, ICntrl=      2527 FMM=F ISym2X=0 I1Cent= 0 IOpClX= 0 NMat=1 NMatS=1 NMatT=0.
 FoFJK:  IHMeth= 1 ICntrl=    2527 DoSepK=F KAlg= 0 I1Cent=           0 FoldK=F
 IRaf=         0 NMat=       1 IRICut=       1 DoRegI=T DoRafI=F ISym2E= 0 IDoP0=0 IntGTp=1.
 FoFCou: FMM=F IPFlag=           0 FMFlag=      100000 FMFlg1=         800
         NFxFlg=           0 DoJE=F BraDBF=F KetDBF=F FulRan=T
         wScrn=  0.000000 ICntrl=      2527 IOpCl=  0 I1Cent=           0 NGrid=           0
         NMat0=    1 NMatS0=      1 NMatT0=    0 NMatD0=    1 NMtDS0=    0 NMtDT0=    0
 Symmetry not used in FoFCou.
 Leave Link  703 at Tue Feb 23 00:11:35 2021, MaxMem=   104857600 cpu:               8.6 elap:               0.3
 (Enter /sw/arch/RedHatEnterpriseServer7/EB_production/2019/software/Gaussian/g16.c01/l716.exe)
 Dipole        = 2.02350729D+00 7.47905710D-02-1.80622110D-06
 ***** Axes restored to original set *****
 -------------------------------------------------------------------
 Center     Atomic                   Forces (Hartrees/Bohr)
 Number     Number              X              Y              Z
 -------------------------------------------------------------------
      1        6           0.011551224    0.002356242    0.000291107
      2        6          -0.015887721   -0.034509804    0.007774583
      3        8          -0.001194246    0.003554977   -0.001023439
      4        8           0.004641722    0.025356096   -0.006263659
      5        1           0.000006377    0.000006074   -0.000001437
      6        1           0.000432480    0.001647099   -0.000277874
      7        1           0.000450164    0.001589316   -0.000499281
 -------------------------------------------------------------------
 Cartesian Forces:  Max     0.034509804 RMS     0.010618123
 Leave Link  716 at Tue Feb 23 00:11:35 2021, MaxMem=   104857600 cpu:               0.6 elap:               0.0
 (Enter /sw/arch/RedHatEnterpriseServer7/EB_production/2019/software/Gaussian/g16.c01/l103.exe)

 GradGradGradGradGradGradGradGradGradGradGradGradGradGradGradGradGradGrad
 Berny optimization.
 Using GEDIIS/GDIIS optimizer.
 FormGI is forming the generalized inverse of G from B-inverse, IUseBI=4.
 Internal  Forces:  Max     0.026531053 RMS     0.006639058
 Search for a local minimum.
 Step number   2 out of a maximum of   31
 All quantities printed in internal units (Hartrees-Bohrs-Radians)
 RMS Force = .66391D-02 SwitMx=.10000D-02 MixMth= 1
 Mixed Optimization -- RFO/linear search
 Update second derivatives using D2CorX and points    1    2
 DE= -8.79D-03 DEPred=-7.32D-03 R= 1.20D+00
 TightC=F SS=  1.41D+00  RLast= 2.03D-01 DXNew= 5.0454D-01 6.0869D-01
 Trust test= 1.20D+00 RLast= 2.03D-01 DXMaxT set to 5.05D-01
 ITU=  1  0
 Use linear search instead of GDIIS.
     Eigenvalues ---    0.01184   0.01184   0.07374   0.07646   0.15941
     Eigenvalues ---    0.16000   0.16046   0.23172   0.27529   0.31527
     Eigenvalues ---    0.34627   0.34676   0.35027   0.46533   0.82927
 RFO step:  Lambda=-1.75634340D-03 EMin= 1.18425225D-02
 Quartic linear search produced a step of  0.38295.
 Iteration  1 RMS(Cart)=  0.02006332 RMS(Int)=  0.00015016
 Iteration  2 RMS(Cart)=  0.00017043 RMS(Int)=  0.00005800
 Iteration  3 RMS(Cart)=  0.00000001 RMS(Int)=  0.00005800
 ITry= 1 IFail=0 DXMaxC= 4.35D-02 DCOld= 1.00D+10 DXMaxT= 5.05D-01 DXLimC= 3.00D+00 Rises=F
 Variable       Old X    -DE/DX   Delta X   Delta X   Delta X     New X
                                 (Linear)    (Quad)   (Total)
    R1        2.86209   0.01346   0.03342   0.02965   0.06307   2.92517
    R2        2.07584   0.00002   0.00478  -0.00306   0.00172   2.07756
    R3        2.07937   0.00110   0.00663   0.00001   0.00664   2.08601
    R4        2.07937   0.00110   0.00663   0.00001   0.00664   2.08601
    R5        2.38964   0.00357   0.00962  -0.00041   0.00921   2.39884
    R6        2.46712  -0.02653  -0.03391  -0.04475  -0.07866   2.38846
    A1        1.95783   0.00009   0.01090  -0.00286   0.00790   1.96574
    A2        1.91861   0.00046   0.00144   0.00138   0.00274   1.92135
    A3        1.91861   0.00046   0.00144   0.00138   0.00274   1.92135
    A4        1.89530   0.00014  -0.00154   0.00550   0.00384   1.89914
    A5        1.89531   0.00014  -0.00154   0.00550   0.00383   1.89914
    A6        1.87612  -0.00137  -0.01138  -0.01122  -0.02261   1.85351
    A7        2.05856  -0.00350  -0.01621  -0.00871  -0.02492   2.03364
    A8        2.03404   0.00307  -0.02909   0.03577   0.00668   2.04073
    A9        2.19058   0.00043   0.04530  -0.02706   0.01824   2.20882
    D1        3.14158   0.00000  -0.00000   0.00004   0.00004  -3.14156
    D2        0.00000  -0.00000   0.00000  -0.00003  -0.00003  -0.00003
    D3        1.03093  -0.00056  -0.00610  -0.00599  -0.01213   1.01880
    D4       -2.11066  -0.00056  -0.00610  -0.00607  -0.01220  -2.12286
    D5       -1.03094   0.00056   0.00609   0.00607   0.01220  -1.01873
    D6        2.11067   0.00056   0.00610   0.00599   0.01213   2.12280
         Item               Value     Threshold  Converged?
 Maximum Force            0.026531     0.000450     NO 
 RMS     Force            0.006639     0.000300     NO 
 Maximum Displacement     0.043472     0.001800     NO 
 RMS     Displacement     0.020017     0.001200     NO 
 Predicted change in Energy=-1.529505D-03
 Lowest energy point so far.  Saving SCF results.
 GradGradGradGradGradGradGradGradGradGradGradGradGradGradGradGradGradGrad

 Leave Link  103 at Tue Feb 23 00:11:35 2021, MaxMem=   104857600 cpu:               0.6 elap:               0.1
 (Enter /sw/arch/RedHatEnterpriseServer7/EB_production/2019/software/Gaussian/g16.c01/l202.exe)
                          Input orientation:                          
 ---------------------------------------------------------------------
 Center     Atomic      Atomic             Coordinates (Angstroms)
 Number     Number       Type             X           Y           Z
 ---------------------------------------------------------------------
      1          6           0        1.406259    0.445672    0.019994
      2          6           0       -0.087704    0.040661    0.008633
      3          8           0       -0.919333    0.950566   -0.294479
      4          8           0       -0.357717   -1.158974    0.300964
      5          1           0        2.068774   -0.389052    0.290150
      6          1           0        1.569087    1.273962    0.731296
      7          1           0        1.702725    0.828795   -0.971898
 ---------------------------------------------------------------------
                    Distance matrix (angstroms):
                    1          2          3          4          5
     1  C    0.000000
     2  C    1.547931   0.000000
     3  O    2.400457   1.269413   0.000000
     4  O    2.401134   1.263918   2.262769   0.000000
     5  H    1.099397   2.216823   3.326432   2.545733   0.000000
     6  H    1.103869   2.188202   2.710910   3.133199   1.791622
     7  H    1.103869   2.188204   2.710888   3.133182   1.791622
                    6          7
     6  H    0.000000
     7  H    1.765475   0.000000
 Stoichiometry    C2H3O2(1-)
 Framework group  C1[X(C2H3O2)]
 Deg. of freedom    15
 Full point group                 C1      NOp   1
 RotChk:  IX=1 Diff= 3.32D-02
 Largest Abelian subgroup         C1      NOp   1
 Largest concise Abelian subgroup C1      NOp   1
                         Standard orientation:                         
 ---------------------------------------------------------------------
 Center     Atomic      Atomic             Coordinates (Angstroms)
 Number     Number       Type             X           Y           Z
 ---------------------------------------------------------------------
      1          6           0        1.354280   -0.018324   -0.000002
      2          6           0       -0.193572   -0.002696    0.000021
      3          8           0       -0.748863    1.138821   -0.000005
      4          8           0       -0.777254   -1.123769   -0.000005
      5          1           0        1.767010   -1.037306   -0.000010
      6          1           0        1.738853    0.521503    0.882730
      7          1           0        1.738828    0.521505   -0.882745
 ---------------------------------------------------------------------
 Rotational constants (GHZ):          11.4466927           9.8235352           5.4662101
 Leave Link  202 at Tue Feb 23 00:11:35 2021, MaxMem=   104857600 cpu:               0.4 elap:               0.0
 (Enter /sw/arch/RedHatEnterpriseServer7/EB_production/2019/software/Gaussian/g16.c01/l301.exe)
 Standard basis: TZVP (5D, 7F)
 Ernie: Thresh=  0.10000D-02 Tol=  0.10000D-05 Strict=F.
 There are    98 symmetry adapted cartesian basis functions of A   symmetry.
 There are    94 symmetry adapted basis functions of A   symmetry.
    94 basis functions,   164 primitive gaussians,    98 cartesian basis functions
    16 alpha electrons       16 beta electrons
       nuclear repulsion energy       111.1670485897 Hartrees.
 IExCor=  404 DFT=T Ex=B Corr=P86 ExCW=0 ScaHFX=  0.000000
 ScaDFX=  1.000000  1.000000  1.000000  1.000000 ScalE2=  1.000000  1.000000
 IRadAn=      5 IRanWt=     -1 IRanGd=            0 ICorTp=0 IEmpDi=131
 NAtoms=    7 NActive=    7 NUniq=    7 SFac= 1.00D+00 NAtFMM=   60 NAOKFM=F Big=F
 Integral buffers will be    131072 words long.
 Raffenetti 2 integral format.
 Two-electron integral symmetry is turned on.
 R6Disp:  Grimme-D3 Dispersion energy=       -0.0028412541 Hartrees.
 Nuclear repulsion after empirical dispersion term =      111.1642073356 Hartrees.
 ------------------------------------------------------------------------------
 Polarizable Continuum Model (PCM)
 =================================
 Model                : PCM.
 Atomic radii         : UFF (Universal Force Field).
 Polarization charges : Total charges.
 Charge compensation  : None.
 Solution method      : On-the-fly selection.
 Cavity type          : Scaled VdW (van der Waals Surface) (Alpha=1.100).
 Cavity algorithm     : GePol (No added spheres)
                        Default sphere list used, NSphG=    7.
                        Lebedev-Laikov grids with approx.  5.0 points / Ang**2.
                        Smoothing algorithm: York/Karplus (Gamma=1.0000).
                        Polarization charges: spherical gaussians, with
                                              point-specific exponents (IZeta= 3).
                        Self-potential: point-specific (ISelfS= 7).
                        Self-field    : sphere-specific E.n sum rule (ISelfD= 2).
 1st derivatives      : Analytical E(r).r(x)/FMM algorithm (CHGder, D1EAlg=3).
                        Cavity 1st derivative terms included.
 Solvent              : Water, Eps=  78.355300 Eps(inf)=   1.777849
 ------------------------------------------------------------------------------
 Spheres list:
 ISph  on   Nord     Re0    Alpha      Xe            Ye            Ze
    1   C      1    1.9255  1.100      1.354280     -0.018324     -0.000002
    2   C      2    1.9255  1.100     -0.193572     -0.002696      0.000021
    3   O      3    1.7500  1.100     -0.748863      1.138821     -0.000005
    4   O      4    1.7500  1.100     -0.777254     -1.123769     -0.000005
    5   H      5    1.4430  1.100      1.767010     -1.037306     -0.000010
    6   H      6    1.4430  1.100      1.738853      0.521503      0.882730
    7   H      7    1.4430  1.100      1.738828      0.521505     -0.882745
 ------------------------------------------------------------------------------
 GePol: Number of generator spheres                  =       7
 GePol: Total number of spheres                      =       7
 GePol: Number of exposed spheres                    =       7 (100.00%)
 GePol: Number of points                             =     801
 GePol: Average weight of points                     =       0.14
 GePol: Minimum weight of points                     =   0.67D-05
 GePol: Maximum weight of points                     =    0.20318
 GePol: Number of points with low weight             =      18
 GePol: Fraction of low-weight points (<1% of avg)   =       2.25%
 GePol: Cavity surface area                          =    108.463 Ang**2
 GePol: Cavity volume                                =     91.287 Ang**3
 Leave Link  301 at Tue Feb 23 00:11:35 2021, MaxMem=   104857600 cpu:               1.8 elap:               0.1
 (Enter /sw/arch/RedHatEnterpriseServer7/EB_production/2019/software/Gaussian/g16.c01/l302.exe)
 NPDir=0 NMtPBC=     1 NCelOv=     1 NCel=       1 NClECP=     1 NCelD=      1
         NCelK=      1 NCelE2=     1 NClLst=     1 CellRange=     0.0.
 One-electron integrals computed using PRISM.
 One-electron integral symmetry used in STVInt
 PrsmSu:  requested number of processors reduced to:  30 ShMem   1 Linda.
 NBasis=    94 RedAO= T EigKep=  8.29D-04  NBF=    94
 NBsUse=    94 1.00D-06 EigRej= -1.00D+00 NBFU=    94
 Precomputing XC quadrature grid using
 IXCGrd= 4 IRadAn=           5 IRanWt=          -1 IRanGd=           0 AccXCQ= 0.00D+00.
 Generated NRdTot=       0 NPtTot=           0 NUsed=           0 NTot=          32
 NSgBfM=    98    98    98    98    98 MxSgAt=     7 MxSgA2=     7.
 Leave Link  302 at Tue Feb 23 00:11:36 2021, MaxMem=   104857600 cpu:               4.0 elap:               0.2
 (Enter /sw/arch/RedHatEnterpriseServer7/EB_production/2019/software/Gaussian/g16.c01/l303.exe)
 DipDrv:  MaxL=1.
 Leave Link  303 at Tue Feb 23 00:11:36 2021, MaxMem=   104857600 cpu:               1.9 elap:               0.1
 (Enter /sw/arch/RedHatEnterpriseServer7/EB_production/2019/software/Gaussian/g16.c01/l401.exe)
 Initial guess from the checkpoint file:  "QTBSBXVTEAMEQO-UHFFFAOYSA-M.chk"
 B after Tr=     0.000000   -0.000000   -0.000000
         Rot=    0.999948   -0.000000   -0.000001   -0.010224 Ang=  -1.17 deg.
 Guess basis will be translated and rotated to current coordinates.
 JPrj=2 DoOrth=T DoCkMO=T.
 Generating alternative initial guess.
 ExpMin= 9.52D-02 ExpMax= 2.70D+04 ExpMxC= 9.22D+02 IAcc=3 IRadAn=         5 AccDes= 0.00D+00
 Harris functional with IExCor=  404 and IRadAn=       5 diagonalized for initial guess.
 HarFok:  IExCor=  404 AccDes= 0.00D+00 IRadAn=         5 IDoV= 1 UseB2=F ITyADJ=14
 ICtDFT=  3500011 ScaDFX=  1.000000  1.000000  1.000000  1.000000
 FoFCou: FMM=F IPFlag=           0 FMFlag=      100000 FMFlg1=           0
         NFxFlg=           0 DoJE=T BraDBF=F KetDBF=T FulRan=T
         wScrn=  0.000000 ICntrl=       500 IOpCl=  0 I1Cent=   200000004 NGrid=           0
         NMat0=    1 NMatS0=      1 NMatT0=    0 NMatD0=    1 NMtDS0=    0 NMtDT0=    0
 Petite list used in FoFCou.
 Harris En= -228.882230027862    
 Leave Link  401 at Tue Feb 23 00:11:36 2021, MaxMem=   104857600 cpu:              10.2 elap:               0.4
 (Enter /sw/arch/RedHatEnterpriseServer7/EB_production/2019/software/Gaussian/g16.c01/l502.exe)
 Keep J ints in memory in canonical form, NReq=39495675.
 FoFCou: FMM=F IPFlag=           0 FMFlag=           0 FMFlg1=           0
         NFxFlg=           0 DoJE=F BraDBF=F KetDBF=F FulRan=T
         wScrn=  0.000000 ICntrl=       600 IOpCl=  0 I1Cent=           0 NGrid=           0
         NMat0=    1 NMatS0=   4465 NMatT0=    0 NMatD0=    1 NMtDS0=    0 NMtDT0=    0
 Symmetry not used in FoFCou.
 Two-electron integral symmetry not used.
 Closed shell SCF:
 Using DIIS extrapolation, IDIIS=  1040.
 NGot=   104857600 LenX=    94863637 LenY=    94853592
 Requested convergence on RMS density matrix=1.00D-08 within 128 cycles.
 Requested convergence on MAX density matrix=1.00D-06.
 Requested convergence on             energy=1.00D-06.
 No special actions if energy rises.

 Cycle   1  Pass 1  IDiag  1:
 Inv3:  Mode=1 IEnd=     1924803.
 Iteration    1 A*A^-1 deviation from unit magnitude is 2.89D-15 for    214.
 Iteration    1 A*A^-1 deviation from orthogonality  is 1.36D-15 for    389     31.
 Iteration    1 A^-1*A deviation from unit magnitude is 2.55D-15 for    543.
 Iteration    1 A^-1*A deviation from orthogonality  is 1.33D-15 for    661    240.
 E= -228.720240590699    
 DIIS: error= 2.46D-03 at cycle   1 NSaved=   1.
 NSaved= 1 IEnMin= 1 EnMin= -228.720240590699     IErMin= 1 ErrMin= 2.46D-03
 ErrMax= 2.46D-03  0.00D+00 EMaxC= 1.00D-01 BMatC= 1.59D-03 BMatP= 1.59D-03
 IDIUse=3 WtCom= 9.75D-01 WtEn= 2.46D-02
 Coeff-Com:  0.100D+01
 Coeff-En:   0.100D+01
 Coeff:      0.100D+01
 Gap=     0.586 Goal=   None    Shift=    0.000
 GapD=    0.586 DampG=2.000 DampE=1.000 DampFc=2.0000 IDamp=-1.
 RMSDP=8.95D-04 MaxDP=2.10D-02              OVMax= 1.93D-02

 Cycle   2  Pass 1  IDiag  1:
 E= -228.721403491201     Delta-E=       -0.001162900502 Rises=F Damp=F
 DIIS: error= 3.61D-03 at cycle   2 NSaved=   2.
 NSaved= 2 IEnMin= 2 EnMin= -228.721403491201     IErMin= 1 ErrMin= 2.46D-03
 ErrMax= 3.61D-03  0.00D+00 EMaxC= 1.00D-01 BMatC= 1.03D-03 BMatP= 1.59D-03
 IDIUse=3 WtCom= 9.64D-01 WtEn= 3.61D-02
 Coeff-Com:  0.425D+00 0.575D+00
 Coeff-En:   0.000D+00 0.100D+01
 Coeff:      0.410D+00 0.590D+00
 Gap=     0.198 Goal=   None    Shift=    0.000
 RMSDP=7.05D-04 MaxDP=1.65D-02 DE=-1.16D-03 OVMax= 2.52D-02

 Cycle   3  Pass 1  IDiag  1:
 E= -228.720936293490     Delta-E=        0.000467197710 Rises=F Damp=F
 DIIS: error= 5.73D-03 at cycle   3 NSaved=   3.
 NSaved= 3 IEnMin= 2 EnMin= -228.721403491201     IErMin= 1 ErrMin= 2.46D-03
 ErrMax= 5.73D-03  0.00D+00 EMaxC= 1.00D-01 BMatC= 1.53D-03 BMatP= 1.03D-03
 IDIUse=3 WtCom= 1.17D-01 WtEn= 8.83D-01
 Coeff-Com:  0.628D-01 0.529D+00 0.408D+00
 Coeff-En:   0.000D+00 0.589D+00 0.411D+00
 Coeff:      0.732D-02 0.582D+00 0.411D+00
 Gap=     0.198 Goal=   None    Shift=    0.000
 RMSDP=4.28D-04 MaxDP=6.44D-03 DE= 4.67D-04 OVMax= 1.67D-02

 Cycle   4  Pass 1  IDiag  1:
 E= -228.722054319144     Delta-E=       -0.001118025654 Rises=F Damp=F
 DIIS: error= 9.27D-04 at cycle   4 NSaved=   4.
 NSaved= 4 IEnMin= 4 EnMin= -228.722054319144     IErMin= 4 ErrMin= 9.27D-04
 ErrMax= 9.27D-04  0.00D+00 EMaxC= 1.00D-01 BMatC= 5.07D-05 BMatP= 1.03D-03
 IDIUse=3 WtCom= 9.91D-01 WtEn= 9.27D-03
 Coeff-Com:  0.157D-01 0.320D+00 0.236D+00 0.428D+00
 Coeff-En:   0.000D+00 0.000D+00 0.000D+00 0.100D+01
 Coeff:      0.156D-01 0.317D+00 0.234D+00 0.434D+00
 Gap=     0.198 Goal=   None    Shift=    0.000
 RMSDP=1.14D-04 MaxDP=4.21D-03 DE=-1.12D-03 OVMax= 1.98D-03

 Cycle   5  Pass 1  IDiag  1:
 E= -228.722087520997     Delta-E=       -0.000033201853 Rises=F Damp=F
 DIIS: error= 3.32D-04 at cycle   5 NSaved=   5.
 NSaved= 5 IEnMin= 5 EnMin= -228.722087520997     IErMin= 5 ErrMin= 3.32D-04
 ErrMax= 3.32D-04  0.00D+00 EMaxC= 1.00D-01 BMatC= 8.35D-06 BMatP= 5.07D-05
 IDIUse=3 WtCom= 9.97D-01 WtEn= 3.32D-03
 Coeff-Com:  0.811D-03 0.120D+00 0.101D+00 0.284D+00 0.494D+00
 Coeff-En:   0.000D+00 0.000D+00 0.000D+00 0.132D+00 0.868D+00
 Coeff:      0.809D-03 0.119D+00 0.101D+00 0.284D+00 0.495D+00
 Gap=     0.197 Goal=   None    Shift=    0.000
 RMSDP=3.16D-05 MaxDP=1.04D-03 DE=-3.32D-05 OVMax= 9.09D-04

 Cycle   6  Pass 1  IDiag  1:
 E= -228.722093054072     Delta-E=       -0.000005533075 Rises=F Damp=F
 DIIS: error= 8.45D-05 at cycle   6 NSaved=   6.
 NSaved= 6 IEnMin= 6 EnMin= -228.722093054072     IErMin= 6 ErrMin= 8.45D-05
 ErrMax= 8.45D-05  0.00D+00 EMaxC= 1.00D-01 BMatC= 5.86D-07 BMatP= 8.35D-06
 IDIUse=1 WtCom= 1.00D+00 WtEn= 0.00D+00
 Coeff-Com:  0.765D-04 0.505D-01 0.484D-01 0.144D+00 0.308D+00 0.449D+00
 Coeff:      0.765D-04 0.505D-01 0.484D-01 0.144D+00 0.308D+00 0.449D+00
 Gap=     0.197 Goal=   None    Shift=    0.000
 RMSDP=6.37D-06 MaxDP=7.88D-05 DE=-5.53D-06 OVMax= 1.80D-04

 Cycle   7  Pass 1  IDiag  1:
 E= -228.722093600849     Delta-E=       -0.000000546776 Rises=F Damp=F
 DIIS: error= 7.90D-06 at cycle   7 NSaved=   7.
 NSaved= 7 IEnMin= 7 EnMin= -228.722093600849     IErMin= 7 ErrMin= 7.90D-06
 ErrMax= 7.90D-06  0.00D+00 EMaxC= 1.00D-01 BMatC= 8.17D-09 BMatP= 5.86D-07
 IDIUse=1 WtCom= 1.00D+00 WtEn= 0.00D+00
 Coeff-Com: -0.572D-04 0.550D-02 0.746D-02 0.216D-01 0.574D-01 0.145D+00
 Coeff-Com:  0.763D+00
 Coeff:     -0.572D-04 0.550D-02 0.746D-02 0.216D-01 0.574D-01 0.145D+00
 Coeff:      0.763D+00
 Gap=     0.197 Goal=   None    Shift=    0.000
 RMSDP=1.25D-06 MaxDP=3.77D-05 DE=-5.47D-07 OVMax= 3.27D-05

 Cycle   8  Pass 1  IDiag  1:
 E= -228.722093606983     Delta-E=       -0.000000006135 Rises=F Damp=F
 DIIS: error= 3.22D-06 at cycle   8 NSaved=   8.
 NSaved= 8 IEnMin= 8 EnMin= -228.722093606983     IErMin= 8 ErrMin= 3.22D-06
 ErrMax= 3.22D-06  0.00D+00 EMaxC= 1.00D-01 BMatC= 9.54D-10 BMatP= 8.17D-09
 IDIUse=1 WtCom= 1.00D+00 WtEn= 0.00D+00
 Coeff-Com: -0.436D-04 0.169D-02 0.246D-02 0.779D-02 0.211D-01 0.619D-01
 Coeff-Com:  0.385D+00 0.520D+00
 Coeff:     -0.436D-04 0.169D-02 0.246D-02 0.779D-02 0.211D-01 0.619D-01
 Coeff:      0.385D+00 0.520D+00
 Gap=     0.197 Goal=   None    Shift=    0.000
 RMSDP=6.24D-07 MaxDP=2.68D-05 DE=-6.13D-09 OVMax= 7.01D-06

 Cycle   9  Pass 1  IDiag  1:
 E= -228.722093607804     Delta-E=       -0.000000000820 Rises=F Damp=F
 DIIS: error= 1.13D-06 at cycle   9 NSaved=   9.
[...]
 of this program is prohibited from giving any competitor of
 Gaussian, Inc. access to this program.  By using this program,
 the user acknowledges that Gaussian, Inc. is engaged in the
 business of creating and licensing software in the field of
 computational chemistry and represents and warrants to the
 licensee that it is not a competitor of Gaussian, Inc. and that
 it will not use this program in any manner prohibited above.
 ---------------------------------------------------------------
  

 Cite this work as:
 Gaussian 16, Revision C.01,
 M. J. Frisch, G. W. Trucks, H. B. Schlegel, G. E. Scuseria, 
 M. A. Robb, J. R. Cheeseman, G. Scalmani, V. Barone, 
 G. A. Petersson, H. Nakatsuji, X. Li, M. Caricato, A. V. Marenich, 
 J. Bloino, B. G. Janesko, R. Gomperts, B. Mennucci, H. P. Hratchian, 
 J. V. Ortiz, A. F. Izmaylov, J. L. Sonnenberg, D. Williams-Young, 
 F. Ding, F. Lipparini, F. Egidi, J. Goings, B. Peng, A. Petrone, 
 T. Henderson, D. Ranasinghe, V. G. Zakrzewski, J. Gao, N. Rega, 
 G. Zheng, W. Liang, M. Hada, M. Ehara, K. Toyota, R. Fukuda, 
 J. Hasegawa, M. Ishida, T. Nakajima, Y. Honda, O. Kitao, H. Nakai, 
 T. Vreven, K. Throssell, J. A. Montgomery, Jr., J. E. Peralta, 
 F. Ogliaro, M. J. Bearpark, J. J. Heyd, E. N. Brothers, K. N. Kudin, 
 V. N. Staroverov, T. A. Keith, R. Kobayashi, J. Normand, 
 K. Raghavachari, A. P. Rendell, J. C. Burant, S. S. Iyengar, 
 J. Tomasi, M. Cossi, J. M. Millam, M. Klene, C. Adamo, R. Cammi, 
 J. W. Ochterski, R. L. Martin, K. Morokuma, O. Farkas, 
 J. B. Foresman, and D. J. Fox, Gaussian, Inc., Wallingford CT, 2019.
 
 ******************************************
 Gaussian 16:  ES64L-G16RevC.01  3-Jul-2019
                23-Feb-2021 
 ******************************************
 %chk=QTBSBXVTEAMEQO-UHFFFAOYSA-M.chk
 %NProcShared=32
 Will use up to   32 processors via shared memory.
 ---------------------------------------------------------
 # BP86/TZVP SCRF=COSMORS geom=CHECKPOINT guess=CHECKPOINT
 ---------------------------------------------------------
 1/29=2,38=1,172=1/1;
 2/12=2,40=1/2;
 3/5=19,7=101,11=2,14=-4,25=1,30=1,70=12101,74=404,116=-2/1,2,3;
 4/5=1/1;
 5/5=2,38=6/2;
 6/7=2,8=2,9=2,10=2,28=1/1;
 99/5=1,9=1/99;
 -------------------------------------------
 COSMO-file for #QTBSBXVTEAMEQO-UHFFFAOYSA-M
 -------------------------------------------
 Structure from the checkpoint file:  "QTBSBXVTEAMEQO-UHFFFAOYSA-M.chk"
 Charge = -1 Multiplicity = 1
 Redundant internal coordinates found in file.  (old form).
 C,0,1.4109711368,0.4491558238,0.0193783082
 C,0,-0.0840791631,0.0382413023,0.0091000733
 O,0,-0.9121622626,0.9550078356,-0.2948052343
 O,0,-0.3656462093,-1.1657627072,0.3023376951
 H,0,2.0713397028,-0.3868711358,0.2898159233
 H,0,1.5636614893,1.2740498625,0.7332066564
 H,0,1.6980053062,0.8278090187,-0.974373422
 Recover connectivity data from disk.
                           ----------------------------
                           !    Current Parameters    !
                           ! (Angstroms and Degrees)  !
 --------------------------                            --------------------------
 ! Name  Definition              Value                                          !
 --------------------------------------------------------------------------------
 ! R1    R(1,2)                  1.5505                                         !
 ! R2    R(1,5)                  1.0992                                         !
 ! R3    R(1,6)                  1.1015                                         !
 ! R4    R(1,7)                  1.1015                                         !
 ! R5    R(2,3)                  1.2722                                         !
 ! R6    R(2,4)                  1.2708                                         !
 ! A1    A(2,1,5)              112.2937                                         !
 ! A2    A(2,1,6)              109.659                                          !
 ! A3    A(2,1,7)              109.6566                                         !
 ! A4    A(5,1,6)              109.079                                          !
 ! A5    A(5,1,7)              109.0795                                         !
 ! A6    A(6,1,7)              106.9237                                         !
 ! A7    A(1,2,3)              115.9904                                         !
 ! A8    A(1,2,4)              117.5939                                         !
 ! A9    A(3,2,4)              126.4157                                         !
 ! D1    D(5,1,2,3)            179.9599                                         !
 ! D2    D(5,1,2,4)              0.0378                                         !
 ! D3    D(6,1,2,3)             58.5192                                         !
 ! D4    D(6,1,2,4)           -121.4029                                         !
 ! D5    D(7,1,2,3)            -58.6005                                         !
 ! D6    D(7,1,2,4)            121.4774                                         !
 --------------------------------------------------------------------------------
                          Input orientation:                          
 ---------------------------------------------------------------------
 Center     Atomic      Atomic             Coordinates (Angstroms)
 Number     Number       Type             X           Y           Z
 ---------------------------------------------------------------------
      1          6           0        1.410971    0.449156    0.019378
      2          6           0       -0.084079    0.038241    0.009100
      3          8           0       -0.912162    0.955008   -0.294805
      4          8           0       -0.365646   -1.165763    0.302338
      5          1           0        2.071340   -0.386871    0.289816
      6          1           0        1.563661    1.274050    0.733207
      7          1           0        1.698005    0.827809   -0.974373
 ---------------------------------------------------------------------
                    Distance matrix (angstroms):
                    1          2          3          4          5
     1  C    0.000000
     2  C    1.550526   0.000000
     3  O    2.398238   1.272219   0.000000
     4  O    2.417519   1.270785   2.270006   0.000000
     5  H    1.099165   2.214803   3.323207   2.558462   0.000000
     6  H    1.101506   2.183255   2.699685   3.140153   1.792482
     7  H    1.101503   2.183223   2.700179   3.140538   1.792485
                    6          7
     6  H    0.000000
     7  H    1.770031   0.000000
 Stoichiometry    C2H3O2(1-)
 Framework group  C1[X(C2H3O2)]
 Deg. of freedom    15
 Full point group                 C1      NOp   1
 Largest Abelian subgroup         C1      NOp   1
 Largest concise Abelian subgroup C1      NOp   1
                         Standard orientation:                         
 ---------------------------------------------------------------------
 Center     Atomic      Atomic             Coordinates (Angstroms)
 Number     Number       Type             X           Y           Z
 ---------------------------------------------------------------------
      1          6           0        1.357893   -0.049945    0.000057
      2          6           0       -0.191843   -0.000447   -0.000461
      3          8           0       -0.712565    1.160324    0.000118
      4          8           0       -0.816126   -1.107318    0.000119
      5          1           0        1.742187   -1.079742    0.000227
      6          1           0        1.745251    0.479059    0.885169
      7          1           0        1.745797    0.478978   -0.884861
 ---------------------------------------------------------------------
 Rotational constants (GHZ):          11.3858849           9.7802798           5.4399044
 Standard basis: TZVP (5D, 7F)
 There are    98 symmetry adapted cartesian basis functions of A   symmetry.
 There are    94 symmetry adapted basis functions of A   symmetry.
    94 basis functions,   164 primitive gaussians,    98 cartesian basis functions
    16 alpha electrons       16 beta electrons
       nuclear repulsion energy       110.9034017515 Hartrees.
 NAtoms=    7 NActive=    7 NUniq=    7 SFac= 1.00D+00 NAtFMM=   60 NAOKFM=F Big=F
 Integral buffers will be    131072 words long.
 Raffenetti 2 integral format.
 Two-electron integral symmetry is turned on.
 Warning! Using old PCM defaults because the COSMOthermo output has been requested.
 These settings can be overridden by following keywords.
 ------------------------------------------------------------------------------
 Polarizable Continuum Model (PCM)
 =================================
 Model                : C-PCM.
 Atomic radii         : Klamt.
 XCosmo               : -1.000 (infinite dielectric limit)
 Polarization charges : Electronic and nuclear charges.
 Charge compensation  : Type 3 (Electronic density weighted correction).
 Solution method      : On-the-fly selection.
 Cavity type          : VdW (van der Waals Surface) (Alpha=1.000).
 Cavity algorithm     : GePol (No added spheres)
                        Default sphere list used, NSphG=    7.
                        Tesserae with average area of 0.200 Ang**2.
                        Smoothing algorithm: None.
                        Polarization charges: point-like.
                        Self-potential: constant (ISelfS= 1).
                        Self-field    : global E.n sum rule (ISelfD= 3).
 Solvent              : Water, Eps=  78.355300 Eps(inf)=   1.777849
 ------------------------------------------------------------------------------
 Spheres list:
 ISph  on   Nord     Re0    Alpha      Xe            Ye            Ze
    1   C      1    2.0000  1.000      1.357893     -0.049945      0.000057
    2   C      2    2.0000  1.000     -0.191843     -0.000447     -0.000461
    3   O      3    1.7200  1.000     -0.712565      1.160324      0.000118
    4   O      4    1.7200  1.000     -0.816126     -1.107318      0.000119
    5   H      5    1.3000  1.000      1.742187     -1.079742      0.000227
    6   H      6    1.3000  1.000      1.745251      0.479059      0.885169
    7   H      7    1.3000  1.000      1.745797      0.478978     -0.884861
 ------------------------------------------------------------------------------
 One-electron integrals computed using PRISM.
 PrsmSu:  requested number of processors reduced to:  30 ShMem   1 Linda.
 NBasis=    94 RedAO= T EigKep=  8.29D-04  NBF=    94
 NBsUse=    94 1.00D-06 EigRej= -1.00D+00 NBFU=    94
 Initial guess from the checkpoint file:  "QTBSBXVTEAMEQO-UHFFFAOYSA-M.chk"
 B after Tr=    -0.000000   -0.000000   -0.000000
         Rot=    1.000000   -0.000000   -0.000000   -0.000000 Ang=   0.00 deg.
 Keep J ints in memory in canonical form, NReq=39495675.
 Requested convergence on RMS density matrix=1.00D-08 within 128 cycles.
 Requested convergence on MAX density matrix=1.00D-06.
 Requested convergence on             energy=1.00D-06.
 No special actions if energy rises.
 Inv3:  Mode=1 IEnd=     1090827.
 Iteration    1 A*A^-1 deviation from unit magnitude is 3.44D-15 for    244.
 Iteration    1 A*A^-1 deviation from orthogonality  is 1.11D-15 for    574    327.
 Iteration    1 A^-1*A deviation from unit magnitude is 3.44D-15 for    244.
 Iteration    1 A^-1*A deviation from orthogonality  is 1.70D-15 for    598    118.
 Error on nuclear    polarization charges =  0.00636
 Error on electronic polarization charges = -0.03494
 SCF Done:  E(RB-P86) =  -228.732739476     A.U. after   10 cycles
            NFock= 10  Conv=0.72D-08     -V/T= 2.0043
 --------------------------------------------------------------------
 Variational C-PCM results
 =========================
 <psi(f)|   H    |psi(f)>                     (a.u.) =    -228.609210
 <psi(f)|H+V(f)/2|psi(f)>                     (a.u.) =    -228.732739
 Total free energy in solution:
 - with all non electrostatic terms           (a.u.) =    -228.726270
 --------------------------------------------------------------------
 (Polarized solute)-Solvent               (kcal/mol) =     -77.52
 --------------------------------------------------------------------
 Cavitation energy                        (kcal/mol) =      11.55
 Dispersion energy                        (kcal/mol) =      -8.29
 Repulsion energy                         (kcal/mol) =       0.79
 Total non electrostatic                  (kcal/mol) =       4.06
 --------------------------------------------------------------------
 Partition over spheres:
 Sphere  on Atom  Surface  Charge   GEl     GCav    GDR
    1      C1      19.23   0.072   -3.46    2.26   -1.27
    2      C2      11.73   0.105   -7.84    1.38   -0.69
    3      O3      20.68   0.442  -34.29    2.57   -1.72
    4      O4      20.75   0.439  -34.08    2.58   -1.71
    5      H5       6.52  -0.015    0.56    0.92   -0.67
    6      H6       6.55  -0.021    0.79    0.92   -0.72
    7      H7       6.55  -0.022    0.80    0.92   -0.72
 --------------------------------------------------------------------
 - cavitation energy not included in the total energy.
 - dispersion energy not included in the total energy.
 - repulsion  energy not included in the total energy.
 After PCM corrections, the energy is  -228.732739476     a.u.
 --------------------------------------------------------------------
 Writing COSMO formatted file "QTBSBXVTEAMEQO-UHFFFAOYSA-M.cosmo"
 Recomputed dielectric energy= -0.126525 old= -0.123529 diff=-3.00D-03

 **********************************************************************

            Population analysis using the SCF Density.

 **********************************************************************

 Orbital symmetries:
       Occupied  (A) (A) (A) (A) (A) (A) (A) (A) (A) (A) (A) (A)
                 (A) (A) (A) (A)
       Virtual   (A) (A) (A) (A) (A) (A) (A) (A) (A) (A) (A) (A)
                 (A) (A) (A) (A) (A) (A) (A) (A) (A) (A) (A) (A)
                 (A) (A) (A) (A) (A) (A) (A) (A) (A) (A) (A) (A)
                 (A) (A) (A) (A) (A) (A) (A) (A) (A) (A) (A) (A)
                 (A) (A) (A) (A) (A) (A) (A) (A) (A) (A) (A) (A)
                 (A) (A) (A) (A) (A) (A) (A) (A) (A) (A) (A) (A)
                 (A) (A) (A) (A) (A) (A)
 The electronic state is 1-A.
 Alpha  occ. eigenvalues --  -18.70592 -18.70440  -9.97147  -9.87797  -0.92812
 Alpha  occ. eigenvalues --   -0.84519  -0.63534  -0.43859  -0.37761  -0.37091
 Alpha  occ. eigenvalues --   -0.36925  -0.32806  -0.30689  -0.21642  -0.19825
 Alpha  occ. eigenvalues --   -0.18682
 Alpha virt. eigenvalues --    0.01329   0.04413   0.10783   0.11917   0.12285
 Alpha virt. eigenvalues --    0.14375   0.18047   0.20794   0.22336   0.24565
 Alpha virt. eigenvalues --    0.28495   0.34318   0.36427   0.39011   0.40981
 Alpha virt. eigenvalues --    0.41613   0.42853   0.45572   0.48101   0.50768
 Alpha virt. eigenvalues --    0.53766   0.55330   0.56196   0.62186   0.74505
 Alpha virt. eigenvalues --    0.85584   1.11237   1.16316   1.25389   1.26049
 Alpha virt. eigenvalues --    1.26700   1.33339   1.39621   1.41524   1.47236
 Alpha virt. eigenvalues --    1.51538   1.52467   1.53785   1.54620   1.73552
 Alpha virt. eigenvalues --    1.73615   1.80947   2.03783   2.08653   2.11626
 Alpha virt. eigenvalues --    2.19580   2.22027   2.25492   2.38793   2.39086
 Alpha virt. eigenvalues --    2.47928   2.51434   2.54422   2.54729   2.56458
 Alpha virt. eigenvalues --    2.59687   2.59960   2.62846   2.63227   2.64438
 Alpha virt. eigenvalues --    2.66176   2.69055   2.89642   2.96243   2.97754
 Alpha virt. eigenvalues --    3.04382   3.15562   3.16441   3.22770   3.25367
 Alpha virt. eigenvalues --    3.25792   3.45097   3.99694   4.10512  21.72621
 Alpha virt. eigenvalues --   21.76398  43.05179  43.15044
          Condensed to atoms (all electrons):
               1          2          3          4          5          6
     1  C    5.959222   0.045437  -0.247967  -0.237753   0.279112   0.329352
     2  C    0.045437   4.736439   0.540911   0.563927  -0.000128  -0.003520
     3  O   -0.247967   0.540911   8.351780  -0.149052   0.014275   0.010591
     4  O   -0.237753   0.563927  -0.149052   8.318618   0.027299   0.005115
     5  H    0.279112  -0.000128   0.014275   0.027299   0.590929  -0.015567
     6  H    0.329352  -0.003520   0.010591   0.005115  -0.015567   0.553847
     7  H    0.329043  -0.003362   0.010593   0.005147  -0.015532  -0.020311
               7
     1  C    0.329043
     2  C   -0.003362
     3  O    0.010593
     4  O    0.005147
     5  H   -0.015532
     6  H   -0.020311
     7  H    0.553946
 Mulliken charges:
               1
     1  C   -0.456445
     2  C    0.120295
     3  O   -0.531129
     4  O   -0.533301
     5  H    0.119611
     6  H    0.140493
     7  H    0.140476
 Sum of Mulliken charges =  -1.00000
 Mulliken charges with hydrogens summed into heavy atoms:
               1
     1  C   -0.055865
     2  C    0.120295
     3  O   -0.531129
     4  O   -0.533301
 Electronic spatial extent (au):  <R**2>=            259.4835
 Charge=             -1.0000 electrons
 Dipole moment (field-independent basis, Debye):
    X=              5.2726    Y=             -0.1422    Z=             -0.0012  Tot=              5.2746
 Quadrupole moment (field-independent basis, Debye-Ang):
   XX=            -30.7877   YY=            -35.6967   ZZ=            -25.1272
   XY=             -0.1097   XZ=              0.0009   YZ=              0.0003
 Traceless Quadrupole moment (field-independent basis, Debye-Ang):
   XX=             -0.2505   YY=             -5.1596   ZZ=              5.4100
   XY=             -0.1097   XZ=              0.0009   YZ=              0.0003
 Octapole moment (field-independent basis, Debye-Ang**2):
  XXX=              2.6831  YYY=             -1.2926  ZZZ=              0.0009  XYY=              7.3605
  XXY=              0.6700  XXZ=              0.0000  XZZ=              0.1635  YZZ=              0.6626
  YYZ=              0.0005  XYZ=             -0.0002
 Hexadecapole moment (field-independent basis, Debye-Ang**3):
 XXXX=           -190.4575 YYYY=           -149.6691 ZZZZ=            -32.2781 XXXY=              0.1679
 XXXZ=             -0.0008 YYYX=             -0.9401 YYYZ=              0.0009 ZZZX=             -0.0005
 ZZZY=              0.0010 XXYY=            -57.2388 XXZZ=            -34.3958 YYZZ=            -28.2693
 XXYZ=             -0.0001 YYXZ=             -0.0002 ZZXY=              1.3513
 N-N= 1.109034017515D+02 E-N=-7.674516361748D+02  KE= 2.277612887987D+02
 Unable to Open any file for archive entry.
 1\1\GINC-TCN1657\SP\RBP86\TZVP\C2H3O2(1-)\ELENAA\23-Feb-2021\0\\# BP86
 /TZVP SCRF=COSMORS geom=CHECKPOINT guess=CHECKPOINT\\COSMO-file for #Q
 TBSBXVTEAMEQO-UHFFFAOYSA-M\\-1,1\C,0,1.4109711368,0.4491558238,0.01937
 83082\C,0,-0.0840791631,0.0382413023,0.0091000733\O,0,-0.9121622626,0.
 9550078356,-0.2948052343\O,0,-0.3656462093,-1.1657627072,0.3023376951\
 H,0,2.0713397028,-0.3868711358,0.2898159233\H,0,1.5636614893,1.2740498
 625,0.7332066564\H,0,1.6980053062,0.8278090187,-0.974373422\\Version=E
 S64L-G16RevC.01\State=1-A\HF=-228.7327395\RMSD=7.206e-09\Dipole=1.9983
 707,0.55924,0.0099211\Quadrupole=-0.4136119,-3.0638744,3.4774863,0.812
 5146,-0.5593678,1.9162183\PG=C01 [X(C2H3O2)]\\@
 The archive entry for this job was punched.


 AND HERE I AM, FOR ALL MY LORE,
 THE WRETCHED FOOL I WAS BEFORE.
 CALLED MASTER OF ARTS, AND DOCTOR TO BOOT,
 FOR TEN YEARS ALMOST I CONFUTE
 AND UP AND DOWN, WHEREVER IT GOES
 I DRAG MY STUDENTS BY THE NOSE --
 AND SEE THAT FOR ALL OUR SCIENCE AND ART
 WE CAN KNOW NOTHING.  IT BURNS MY HEART.

                                       -- FAUST
 Job cpu time:       0 days  0 hours  1 minutes  4.5 seconds.
 Elapsed time:       0 days  0 hours  0 minutes  2.5 seconds.
 File lengths (MBytes):  RWF=     10 Int=      0 D2E=      0 Chk=      4 Scr=      1
 Normal termination of Gaussian 16 at Tue Feb 23 00:12:01 2021.
