 Entering Gaussian System, Link 0=g16
 Input=QUSNBJAOOMFDIB-UHFFFAOYSA-O.gjf
 Output=QUSNBJAOOMFDIB-UHFFFAOYSA-O.log
 Initial command:
 /sw/arch/RedHatEnterpriseServer7/EB_production/2019/software/Gaussian/g16.c01/l1.exe "/scratch-local/elenaa.9715950/Gau-20559.inp" -scrdir="/scratch-local/elenaa.9715950/"
 Entering Link 1 = /sw/arch/RedHatEnterpriseServer7/EB_production/2019/software/Gaussian/g16.c01/l1.exe PID=     20560.
  
 Copyright (c) 1988-2019, Gaussian, Inc.  All Rights Reserved.
  
 This is part of the Gaussian(R) 16 program.  It is based on
 the Gaussian(R) 09 system (copyright 2009, Gaussian, Inc.),
 the Gaussian(R) 03 system (copyright 2003, Gaussian, Inc.),
 the Gaussian(R) 98 system (copyright 1998, Gaussian, Inc.),
 the Gaussian(R) 94 system (copyright 1995, Gaussian, Inc.),
 the Gaussian 92(TM) system (copyright 1992, Gaussian, Inc.),
 the Gaussian 90(TM) system (copyright 1990, Gaussian, Inc.),
 the Gaussian 88(TM) system (copyright 1988, Gaussian, Inc.),
 the Gaussian 86(TM) system (copyright 1986, Carnegie Mellon
 University), and the Gaussian 82(TM) system (copyright 1983,
 Carnegie Mellon University). Gaussian is a federally registered
 trademark of Gaussian, Inc.
  
 This software contains proprietary and confidential information,
 including trade secrets, belonging to Gaussian, Inc.
  
 This software is provided under written license and may be
 used, copied, transmitted, or stored only in accord with that
 written license.
  
 The following legend is applicable only to US Government
 contracts under FAR:
  
                    RESTRICTED RIGHTS LEGEND
  
 Use, reproduction and disclosure by the US Government is
 subject to restrictions as set forth in subparagraphs (a)
 and (c) of the Commercial Computer Software - Restricted
 Rights clause in FAR 52.227-19.
  
 Gaussian, Inc.
 340 Quinnipiac St., Bldg. 40, Wallingford CT 06492
  
  
 ---------------------------------------------------------------
 Warning -- This program may not be used in any manner that
 competes with the business of Gaussian, Inc. or will provide
 assistance to any competitor of Gaussian, Inc.  The licensee
 of this program is prohibited from giving any competitor of
 Gaussian, Inc. access to this program.  By using this program,
 the user acknowledges that Gaussian, Inc. is engaged in the
 business of creating and licensing software in the field of
 computational chemistry and represents and warrants to the
 licensee that it is not a competitor of Gaussian, Inc. and that
 it will not use this program in any manner prohibited above.
 ---------------------------------------------------------------
  

 Cite this work as:
 Gaussian 16, Revision C.01,
 M. J. Frisch, G. W. Trucks, H. B. Schlegel, G. E. Scuseria, 
 M. A. Robb, J. R. Cheeseman, G. Scalmani, V. Barone, 
 G. A. Petersson, H. Nakatsuji, X. Li, M. Caricato, A. V. Marenich, 
 J. Bloino, B. G. Janesko, R. Gomperts, B. Mennucci, H. P. Hratchian, 
 J. V. Ortiz, A. F. Izmaylov, J. L. Sonnenberg, D. Williams-Young, 
 F. Ding, F. Lipparini, F. Egidi, J. Goings, B. Peng, A. Petrone, 
 T. Henderson, D. Ranasinghe, V. G. Zakrzewski, J. Gao, N. Rega, 
 G. Zheng, W. Liang, M. Hada, M. Ehara, K. Toyota, R. Fukuda, 
 J. Hasegawa, M. Ishida, T. Nakajima, Y. Honda, O. Kitao, H. Nakai, 
 T. Vreven, K. Throssell, J. A. Montgomery, Jr., J. E. Peralta, 
 F. Ogliaro, M. J. Bearpark, J. J. Heyd, E. N. Brothers, K. N. Kudin, 
 V. N. Staroverov, T. A. Keith, R. Kobayashi, J. Normand, 
 K. Raghavachari, A. P. Rendell, J. C. Burant, S. S. Iyengar, 
 J. Tomasi, M. Cossi, J. M. Millam, M. Klene, C. Adamo, R. Cammi, 
 J. W. Ochterski, R. L. Martin, K. Morokuma, O. Farkas, 
 J. B. Foresman, and D. J. Fox, Gaussian, Inc., Wallingford CT, 2019.
 
 ******************************************
 Gaussian 16:  ES64L-G16RevC.01  3-Jul-2019
                23-Feb-2021 
 ******************************************
 %chk=QUSNBJAOOMFDIB-UHFFFAOYSA-O.chk
 %NProcShared=32
 Will use up to   32 processors via shared memory.
 -------------------------------------------------------------
 #P BP86/TZVP EmpiricalDispersion=GD3 SCRF=(Solvent=Water) Opt
 -------------------------------------------------------------
 1/18=20,19=15,26=3,38=1/1,3;
 2/9=110,12=2,17=6,18=5,40=1/2;
 3/5=19,7=101,11=2,25=1,30=1,70=2201,71=1,72=1,74=404,124=31/1,2,3;
 4//1;
 5/5=2,38=5,53=1/2;
 6/7=2,8=2,9=2,10=2,28=1/1;
 7//1,2,3,16;
 1/18=20,19=15,26=3/3(2);
 2/9=110/2;
 99//99;
 2/9=110/2;
 3/5=19,7=101,11=2,25=1,30=1,70=2205,71=1,72=1,74=404,124=31/1,2,3;
 4/5=5,16=3,69=1/1;
 5/5=2,38=5,53=1/2;
 7//1,2,3,16;
 1/18=20,19=15,26=3/3(-5);
 2/9=110/2;
 6/7=2,8=2,9=2,10=2,19=2,28=1/1;
 99/9=1/99;
 Leave Link    1 at Tue Feb 23 00:11:25 2021, MaxMem=           0 cpu:               1.3 elap:               0.1
 (Enter /sw/arch/RedHatEnterpriseServer7/EB_production/2019/software/Gaussian/g16.c01/l101.exe)
 -------------------------------------
 Particle #QUSNBJAOOMFDIB-UHFFFAOYSA-O
 -------------------------------------
 Symbolic Z-matrix:
 Charge =  1 Multiplicity = 1
 C                    -0.01008  -0.00412   0. 
 C                     1.53094   0.0032    0. 
 N                     2.02946   1.38203   0. 
 H                    -0.38918   0.50471   0.8874 
 H                    -0.38     -1.02999   0. 
 H                    -0.38918   0.50471  -0.8874 
 H                     1.9074   -0.51186   0.8864 
 H                     1.9074   -0.51186  -0.8864 
 H                     1.68958   1.86498  -0.83273 
 H                     1.68958   1.86498   0.83273 
 H                     3.05074   1.38266   0. 
 
 ITRead=  0  0  0  0  0  0  0  0  0  0  0
 MicOpt= -1 -1 -1 -1 -1 -1 -1 -1 -1 -1 -1
 NAtoms=     11 NQM=       11 NQMF=       0 NMMI=      0 NMMIF=      0
                NMic=       0 NMicF=      0.
                    Isotopes and Nuclear Properties:
 (Nuclear quadrupole moments (NQMom) in fm**2, nuclear magnetic moments (NMagM)
  in nuclear magnetons)

  Atom         1           2           3           4           5           6           7           8           9          10
 IAtWgt=          12          12          14           1           1           1           1           1           1           1
 AtmWgt=  12.0000000  12.0000000  14.0030740   1.0078250   1.0078250   1.0078250   1.0078250   1.0078250   1.0078250   1.0078250
 NucSpn=           0           0           2           1           1           1           1           1           1           1
 AtZEff=  -0.0000000  -0.0000000  -0.0000000  -0.0000000  -0.0000000  -0.0000000  -0.0000000  -0.0000000  -0.0000000  -0.0000000
 NQMom=    0.0000000   0.0000000   2.0440000   0.0000000   0.0000000   0.0000000   0.0000000   0.0000000   0.0000000   0.0000000
 NMagM=    0.0000000   0.0000000   0.4037610   2.7928460   2.7928460   2.7928460   2.7928460   2.7928460   2.7928460   2.7928460
 AtZNuc=   6.0000000   6.0000000   7.0000000   1.0000000   1.0000000   1.0000000   1.0000000   1.0000000   1.0000000   1.0000000

  Atom        11
 IAtWgt=           1
 AtmWgt=   1.0078250
 NucSpn=           1
 AtZEff=  -0.0000000
 NQMom=    0.0000000
 NMagM=    2.7928460
 AtZNuc=   1.0000000
 Leave Link  101 at Tue Feb 23 00:11:25 2021, MaxMem=   104857600 cpu:               2.9 elap:               0.1
 (Enter /sw/arch/RedHatEnterpriseServer7/EB_production/2019/software/Gaussian/g16.c01/l103.exe)

 GradGradGradGradGradGradGradGradGradGradGradGradGradGradGradGradGradGrad
 Berny optimization.
 Initialization pass.
                           ----------------------------
                           !    Initial Parameters    !
                           ! (Angstroms and Degrees)  !
 --------------------------                            --------------------------
 ! Name  Definition              Value          Derivative Info.                !
 --------------------------------------------------------------------------------
 ! R1    R(1,2)                  1.541          estimate D2E/DX2                !
 ! R2    R(1,4)                  1.0909         estimate D2E/DX2                !
 ! R3    R(1,5)                  1.0905         estimate D2E/DX2                !
 ! R4    R(1,6)                  1.0909         estimate D2E/DX2                !
 ! R5    R(2,3)                  1.4662         estimate D2E/DX2                !
 ! R6    R(2,7)                  1.0921         estimate D2E/DX2                !
 ! R7    R(2,8)                  1.0921         estimate D2E/DX2                !
 ! R8    R(3,9)                  1.0209         estimate D2E/DX2                !
 ! R9    R(3,10)                 1.0209         estimate D2E/DX2                !
 ! R10   R(3,11)                 1.0213         estimate D2E/DX2                !
 ! A1    A(2,1,4)              110.1992         estimate D2E/DX2                !
 ! A2    A(2,1,5)              110.101          estimate D2E/DX2                !
 ! A3    A(2,1,6)              110.1992         estimate D2E/DX2                !
 ! A4    A(4,1,5)              108.7168         estimate D2E/DX2                !
 ! A5    A(4,1,6)              108.8674         estimate D2E/DX2                !
 ! A6    A(5,1,6)              108.7168         estimate D2E/DX2                !
 ! A7    A(1,2,3)              110.1498         estimate D2E/DX2                !
 ! A8    A(1,2,7)              110.027          estimate D2E/DX2                !
 ! A9    A(1,2,8)              110.027          estimate D2E/DX2                !
 ! A10   A(3,2,7)              109.0452         estimate D2E/DX2                !
 ! A11   A(3,2,8)              109.0452         estimate D2E/DX2                !
 ! A12   A(7,2,8)              108.5123         estimate D2E/DX2                !
 ! A13   A(2,3,9)              109.3712         estimate D2E/DX2                !
 ! A14   A(2,3,10)             109.3712         estimate D2E/DX2                !
 ! A15   A(2,3,11)             109.9129         estimate D2E/DX2                !
 ! A16   A(9,3,10)             109.3127         estimate D2E/DX2                !
 ! A17   A(9,3,11)             109.4289         estimate D2E/DX2                !
 ! A18   A(10,3,11)            109.4289         estimate D2E/DX2                !
 ! D1    D(4,1,2,3)            -60.0831         estimate D2E/DX2                !
 ! D2    D(4,1,2,7)             60.1625         estimate D2E/DX2                !
 ! D3    D(4,1,2,8)            179.6712         estimate D2E/DX2                !
 ! D4    D(5,1,2,3)            180.0            estimate D2E/DX2                !
 ! D5    D(5,1,2,7)            -59.7544         estimate D2E/DX2                !
 ! D6    D(5,1,2,8)             59.7544         estimate D2E/DX2                !
 ! D7    D(6,1,2,3)             60.0831         estimate D2E/DX2                !
 ! D8    D(6,1,2,7)           -179.6712         estimate D2E/DX2                !
 ! D9    D(6,1,2,8)            -60.1625         estimate D2E/DX2                !
 ! D10   D(1,2,3,9)            -59.8422         estimate D2E/DX2                !
 ! D11   D(1,2,3,10)            59.8422         estimate D2E/DX2                !
 ! D12   D(1,2,3,11)           180.0            estimate D2E/DX2                !
 ! D13   D(7,2,3,9)            179.3217         estimate D2E/DX2                !
 ! D14   D(7,2,3,10)           -60.9939         estimate D2E/DX2                !
 ! D15   D(7,2,3,11)            59.1639         estimate D2E/DX2                !
 ! D16   D(8,2,3,9)             60.9939         estimate D2E/DX2                !
 ! D17   D(8,2,3,10)          -179.3217         estimate D2E/DX2                !
 ! D18   D(8,2,3,11)           -59.1639         estimate D2E/DX2                !
 --------------------------------------------------------------------------------
 Trust Radius=3.00D-01 FncErr=1.00D-07 GrdErr=1.00D-06 EigMax=2.50D+02 EigMin=1.00D-04
 Number of steps in this run=     56 maximum allowed number of steps=    100.
 GradGradGradGradGradGradGradGradGradGradGradGradGradGradGradGradGradGrad

 Leave Link  103 at Tue Feb 23 00:11:25 2021, MaxMem=   104857600 cpu:               0.7 elap:               0.1
 (Enter /sw/arch/RedHatEnterpriseServer7/EB_production/2019/software/Gaussian/g16.c01/l202.exe)
                          Input orientation:                          
 ---------------------------------------------------------------------
 Center     Atomic      Atomic             Coordinates (Angstroms)
 Number     Number       Type             X           Y           Z
 ---------------------------------------------------------------------
      1          6           0       -0.010080   -0.004120    0.000000
      2          6           0        1.530940    0.003200    0.000000
      3          7           0        2.029460    1.382030    0.000000
      4          1           0       -0.389180    0.504710    0.887400
      5          1           0       -0.380000   -1.029990    0.000000
      6          1           0       -0.389180    0.504710   -0.887400
      7          1           0        1.907400   -0.511860    0.886400
      8          1           0        1.907400   -0.511860   -0.886400
      9          1           0        1.689580    1.864980   -0.832730
     10          1           0        1.689580    1.864980    0.832730
     11          1           0        3.050740    1.382660    0.000000
 ---------------------------------------------------------------------
                    Distance matrix (angstroms):
                    1          2          3          4          5
     1  C    0.000000
     2  C    1.541037   0.000000
     3  N    2.465996   1.466184   0.000000
     4  H    1.090919   2.173902   2.721578   0.000000
     5  H    1.090527   2.172366   3.409302   1.772813   0.000000
     6  H    1.090919   2.173902   2.721578   1.774800   1.772813
     7  H    2.172610   1.092114   2.094618   2.511513   2.507262
     8  H    2.172610   1.092114   2.094618   3.074746   2.507262
     9  H    2.660041   2.045686   1.020881   3.021659   3.654785
    10  H    2.660041   2.045686   1.020881   2.484867   3.654785
    11  H    3.360324   2.052487   1.021280   3.659416   4.194146
                    6          7          8          9         10
     6  H    0.000000
     7  H    3.074746   0.000000
     8  H    2.511513   1.772800   0.000000
     9  H    2.484867   2.941466   2.387403   0.000000
    10  H    3.021659   2.387403   2.941466   1.665460   0.000000
    11  H    3.659416   2.383723   2.383723   1.666982   1.666982
                   11
    11  H    0.000000
 Stoichiometry    C2H8N(1+)
 Framework group  CS[SG(C2H2N),X(H6)]
 Deg. of freedom    16
 Full point group                 CS      NOp   2
 Largest Abelian subgroup         CS      NOp   2
 Largest concise Abelian subgroup CS      NOp   2
                         Standard orientation:                         
 ---------------------------------------------------------------------
 Center     Atomic      Atomic             Coordinates (Angstroms)
 Number     Number       Type             X           Y           Z
 ---------------------------------------------------------------------
      1          6           0        1.294126   -0.232780    0.000000
      2          6           0       -0.000000    0.603901    0.000000
      3          7           0       -1.171459   -0.277788    0.000000
      4          1           0        1.333216   -0.866102    0.887400
      5          1           0        2.164883    0.423750    0.000000
      6          1           0        1.333216   -0.866102   -0.887400
      7          1           0       -0.033473    1.240995    0.886400
      8          1           0       -0.033473    1.240995   -0.886400
      9          1           0       -1.151050   -0.867994   -0.832730
     10          1           0       -1.151050   -0.867994    0.832730
     11          1           0       -2.026807    0.280239    0.000000
 ---------------------------------------------------------------------
 Rotational constants (GHZ):          29.6411802           8.5633190           7.5509519
 Leave Link  202 at Tue Feb 23 00:11:26 2021, MaxMem=   104857600 cpu:               0.9 elap:               0.1
 (Enter /sw/arch/RedHatEnterpriseServer7/EB_production/2019/software/Gaussian/g16.c01/l301.exe)
 Standard basis: TZVP (5D, 7F)
 Ernie: Thresh=  0.10000D-02 Tol=  0.10000D-05 Strict=F.
 There are    73 symmetry adapted cartesian basis functions of A'  symmetry.
 There are    35 symmetry adapted cartesian basis functions of A"  symmetry.
 There are    70 symmetry adapted basis functions of A'  symmetry.
 There are    35 symmetry adapted basis functions of A"  symmetry.
   105 basis functions,   169 primitive gaussians,   108 cartesian basis functions
    13 alpha electrons       13 beta electrons
       nuclear repulsion energy        90.6608789027 Hartrees.
 IExCor=  404 DFT=T Ex=B Corr=P86 ExCW=0 ScaHFX=  0.000000
 ScaDFX=  1.000000  1.000000  1.000000  1.000000 ScalE2=  1.000000  1.000000
 IRadAn=      5 IRanWt=     -1 IRanGd=            0 ICorTp=0 IEmpDi=131
 NAtoms=   11 NActive=   11 NUniq=    8 SFac= 1.89D+00 NAtFMM=   60 NAOKFM=F Big=F
 Integral buffers will be    131072 words long.
 Raffenetti 2 integral format.
 Two-electron integral symmetry is turned on.
 R6Disp:  Grimme-D3 Dispersion energy=       -0.0051754631 Hartrees.
 Nuclear repulsion after empirical dispersion term =       90.6557034396 Hartrees.
 ------------------------------------------------------------------------------
 Polarizable Continuum Model (PCM)
 =================================
 Model                : PCM.
 Atomic radii         : UFF (Universal Force Field).
 Polarization charges : Total charges.
 Charge compensation  : None.
 Solution method      : On-the-fly selection.
 Cavity type          : Scaled VdW (van der Waals Surface) (Alpha=1.100).
 Cavity algorithm     : GePol (No added spheres)
                        Default sphere list used, NSphG=   11.
                        Lebedev-Laikov grids with approx.  5.0 points / Ang**2.
                        Smoothing algorithm: York/Karplus (Gamma=1.0000).
                        Polarization charges: spherical gaussians, with
                                              point-specific exponents (IZeta= 3).
                        Self-potential: point-specific (ISelfS= 7).
                        Self-field    : sphere-specific E.n sum rule (ISelfD= 2).
 1st derivatives      : Analytical E(r).r(x)/FMM algorithm (CHGder, D1EAlg=3).
                        Cavity 1st derivative terms included.
 Solvent              : Water, Eps=  78.355300 Eps(inf)=   1.777849
 ------------------------------------------------------------------------------
 Spheres list:
 ISph  on   Nord     Re0    Alpha      Xe            Ye            Ze
    1   C      1    1.9255  1.100      1.294126     -0.232780      0.000000
    2   C      2    1.9255  1.100     -0.000000      0.603901      0.000000
    3   N      3    1.8300  1.100     -1.171459     -0.277788      0.000000
    4   H      4    1.4430  1.100      1.333216     -0.866102      0.887400
    5   H      5    1.4430  1.100      2.164883      0.423750      0.000000
    6   H      6    1.4430  1.100      1.333216     -0.866102     -0.887400
    7   H      7    1.4430  1.100     -0.033473      1.240995      0.886400
    8   H      8    1.4430  1.100     -0.033473      1.240995     -0.886400
    9   H      9    1.4430  1.100     -1.151050     -0.867994     -0.832730
   10   H     10    1.4430  1.100     -1.151050     -0.867994      0.832730
   11   H     11    1.4430  1.100     -2.026807      0.280239      0.000000
 ------------------------------------------------------------------------------
 GePol: Number of generator spheres                  =      11
 GePol: Total number of spheres                      =      11
 GePol: Number of exposed spheres                    =      11 (100.00%)
 GePol: Number of points                             =     875
 GePol: Average weight of points                     =       0.13
 GePol: Minimum weight of points                     =   0.39D-08
 GePol: Maximum weight of points                     =    0.20577
 GePol: Number of points with low weight             =      45
 GePol: Fraction of low-weight points (<1% of avg)   =       5.14%
 GePol: Cavity surface area                          =    117.363 Ang**2
 GePol: Cavity volume                                =     99.948 Ang**3
 Leave Link  301 at Tue Feb 23 00:11:26 2021, MaxMem=   104857600 cpu:               1.9 elap:               0.1
 (Enter /sw/arch/RedHatEnterpriseServer7/EB_production/2019/software/Gaussian/g16.c01/l302.exe)
 NPDir=0 NMtPBC=     1 NCelOv=     1 NCel=       1 NClECP=     1 NCelD=      1
         NCelK=      1 NCelE2=     1 NClLst=     1 CellRange=     0.0.
 One-electron integrals computed using PRISM.
 One-electron integral symmetry used in STVInt
 PrsmSu:  requested number of processors reduced to:  30 ShMem   1 Linda.
 NBasis=   105 RedAO= T EigKep=  5.25D-04  NBF=    70    35
 NBsUse=   105 1.00D-06 EigRej= -1.00D+00 NBFU=    70    35
 Precomputing XC quadrature grid using
 IXCGrd= 4 IRadAn=           5 IRanWt=          -1 IRanGd=           0 AccXCQ= 0.00D+00.
 Generated NRdTot=       0 NPtTot=           0 NUsed=           0 NTot=          32
 NSgBfM=   108   108   108   108   108 MxSgAt=    11 MxSgA2=    11.
 Leave Link  302 at Tue Feb 23 00:11:26 2021, MaxMem=   104857600 cpu:               4.5 elap:               0.2
 (Enter /sw/arch/RedHatEnterpriseServer7/EB_production/2019/software/Gaussian/g16.c01/l303.exe)
 DipDrv:  MaxL=1.
 Leave Link  303 at Tue Feb 23 00:11:26 2021, MaxMem=   104857600 cpu:               0.9 elap:               0.1
 (Enter /sw/arch/RedHatEnterpriseServer7/EB_production/2019/software/Gaussian/g16.c01/l401.exe)
 ExpMin= 9.52D-02 ExpMax= 1.97D+04 ExpMxC= 6.73D+02 IAcc=3 IRadAn=         5 AccDes= 0.00D+00
 Harris functional with IExCor=  404 and IRadAn=       5 diagonalized for initial guess.
 HarFok:  IExCor=  404 AccDes= 0.00D+00 IRadAn=         5 IDoV= 1 UseB2=F ITyADJ=14
 ICtDFT=  3500011 ScaDFX=  1.000000  1.000000  1.000000  1.000000
 FoFCou: FMM=F IPFlag=           0 FMFlag=      100000 FMFlg1=           0
         NFxFlg=           0 DoJE=T BraDBF=F KetDBF=T FulRan=T
         wScrn=  0.000000 ICntrl=       500 IOpCl=  0 I1Cent=   200000004 NGrid=           0
         NMat0=    1 NMatS0=      1 NMatT0=    0 NMatD0=    1 NMtDS0=    0 NMtDT0=    0
 Petite list used in FoFCou.
 Harris En= -135.727041925022    
 JPrj=0 DoOrth=F DoCkMO=F.
 Initial guess orbital symmetries:
       Occupied  (A') (A') (A') (A') (A') (A') (A") (A') (A') (A")
                 (A') (A') (A")
       Virtual   (A') (A') (A") (A') (A') (A') (A') (A") (A") (A')
                 (A') (A") (A') (A') (A") (A") (A') (A') (A') (A')
                 (A") (A') (A') (A") (A") (A') (A') (A') (A') (A')
                 (A') (A") (A') (A") (A') (A") (A') (A') (A") (A')
                 (A") (A') (A") (A') (A") (A') (A") (A') (A') (A")
                 (A") (A') (A") (A') (A") (A') (A') (A") (A') (A')
                 (A') (A') (A") (A') (A') (A') (A") (A') (A") (A')
                 (A") (A") (A') (A') (A") (A') (A') (A') (A") (A')
                 (A') (A') (A") (A') (A') (A") (A') (A") (A') (A')
                 (A') (A')
 The electronic state of the initial guess is 1-A'.
 Leave Link  401 at Tue Feb 23 00:11:26 2021, MaxMem=   104857600 cpu:               5.2 elap:               0.2
 (Enter /sw/arch/RedHatEnterpriseServer7/EB_production/2019/software/Gaussian/g16.c01/l502.exe)
 Keep J ints in memory in symmetry-blocked form, NReq=45423652.
 FoFCou: FMM=F IPFlag=           0 FMFlag=           0 FMFlg1=           0
         NFxFlg=           0 DoJE=F BraDBF=F KetDBF=F FulRan=T
         wScrn=  0.000000 ICntrl=       600 IOpCl=  0 I1Cent=           0 NGrid=           0
         NMat0=    1 NMatS0=   5565 NMatT0=    0 NMatD0=    1 NMtDS0=    0 NMtDT0=    0
 Petite list used in FoFCou.
 Closed shell SCF:
 Using DIIS extrapolation, IDIIS=  1040.
 NGot=   104857600 LenX=    96961044 LenY=    96948939
 Requested convergence on RMS density matrix=1.00D-08 within 128 cycles.
 Requested convergence on MAX density matrix=1.00D-06.
 Requested convergence on             energy=1.00D-06.
 No special actions if energy rises.

 Cycle   1  Pass 1  IDiag  1:
 Inv3:  Mode=1 IEnd=     2296875.
 Iteration    1 A*A^-1 deviation from unit magnitude is 3.11D-15 for    610.
 Iteration    1 A*A^-1 deviation from orthogonality  is 1.78D-15 for    635     38.
 Iteration    1 A^-1*A deviation from unit magnitude is 2.66D-15 for    555.
 Iteration    1 A^-1*A deviation from orthogonality  is 1.56D-15 for    734    471.
 E= -135.601763298731    
 DIIS: error= 3.28D-02 at cycle   1 NSaved=   1.
 NSaved= 1 IEnMin= 1 EnMin= -135.601763298731     IErMin= 1 ErrMin= 3.28D-02
 ErrMax= 3.28D-02  0.00D+00 EMaxC= 1.00D-01 BMatC= 8.54D-02 BMatP= 8.54D-02
 IDIUse=3 WtCom= 6.72D-01 WtEn= 3.28D-01
 Coeff-Com:  0.100D+01
 Coeff-En:   0.100D+01
 Coeff:      0.100D+01
 Gap=     0.269 Goal=   None    Shift=    0.000
 GapD=    0.269 DampG=1.000 DampE=0.500 DampFc=0.5000 IDamp=-1.
 Damping current iteration by 5.00D-01
 RMSDP=4.18D-03 MaxDP=7.57D-02              OVMax= 1.80D-01

 Cycle   2  Pass 1  IDiag  1:
 E= -135.630827280616     Delta-E=       -0.029063981885 Rises=F Damp=T
 DIIS: error= 8.62D-03 at cycle   2 NSaved=   2.
 NSaved= 2 IEnMin= 2 EnMin= -135.630827280616     IErMin= 2 ErrMin= 8.62D-03
 ErrMax= 8.62D-03  0.00D+00 EMaxC= 1.00D-01 BMatC= 6.37D-03 BMatP= 8.54D-02
 IDIUse=3 WtCom= 9.14D-01 WtEn= 8.62D-02
 Coeff-Com:  0.145D+00 0.855D+00
 Coeff-En:   0.275D+00 0.725D+00
 Coeff:      0.157D+00 0.843D+00
 Gap=     0.322 Goal=   None    Shift=    0.000
 RMSDP=8.91D-04 MaxDP=1.33D-02 DE=-2.91D-02 OVMax= 1.05D-01

 Cycle   3  Pass 1  IDiag  1:
 E= -135.682246522685     Delta-E=       -0.051419242069 Rises=F Damp=F
 DIIS: error= 3.28D-03 at cycle   3 NSaved=   3.
 NSaved= 3 IEnMin= 3 EnMin= -135.682246522685     IErMin= 3 ErrMin= 3.28D-03
 ErrMax= 3.28D-03  0.00D+00 EMaxC= 1.00D-01 BMatC= 6.83D-04 BMatP= 6.37D-03
 IDIUse=3 WtCom= 9.67D-01 WtEn= 3.28D-02
 Coeff-Com:  0.132D-02 0.225D+00 0.773D+00
 Coeff-En:   0.000D+00 0.000D+00 0.100D+01
 Coeff:      0.127D-02 0.218D+00 0.781D+00
 Gap=     0.323 Goal=   None    Shift=    0.000
 RMSDP=2.53D-04 MaxDP=3.89D-03 DE=-5.14D-02 OVMax= 9.75D-03

 Cycle   4  Pass 1  IDiag  1:
 E= -135.682883387807     Delta-E=       -0.000636865122 Rises=F Damp=F
 DIIS: error= 6.64D-04 at cycle   4 NSaved=   4.
 NSaved= 4 IEnMin= 4 EnMin= -135.682883387807     IErMin= 4 ErrMin= 6.64D-04
 ErrMax= 6.64D-04  0.00D+00 EMaxC= 1.00D-01 BMatC= 4.15D-05 BMatP= 6.83D-04
 IDIUse=3 WtCom= 9.93D-01 WtEn= 6.64D-03
 Coeff-Com: -0.464D-02 0.347D-01 0.249D+00 0.721D+00
 Coeff-En:   0.000D+00 0.000D+00 0.000D+00 0.100D+01
 Coeff:     -0.461D-02 0.345D-01 0.247D+00 0.723D+00
 Gap=     0.323 Goal=   None    Shift=    0.000
 RMSDP=6.07D-05 MaxDP=6.40D-04 DE=-6.37D-04 OVMax= 2.23D-03

 Cycle   5  Pass 1  IDiag  1:
 E= -135.682921497495     Delta-E=       -0.000038109688 Rises=F Damp=F
 DIIS: error= 1.66D-04 at cycle   5 NSaved=   5.
 NSaved= 5 IEnMin= 5 EnMin= -135.682921497495     IErMin= 5 ErrMin= 1.66D-04
 ErrMax= 1.66D-04  0.00D+00 EMaxC= 1.00D-01 BMatC= 3.05D-06 BMatP= 4.15D-05
 IDIUse=3 WtCom= 9.98D-01 WtEn= 1.66D-03
 Coeff-Com: -0.246D-02 0.140D-01 0.116D+00 0.367D+00 0.505D+00
 Coeff-En:   0.000D+00 0.000D+00 0.000D+00 0.000D+00 0.100D+01
 Coeff:     -0.246D-02 0.139D-01 0.116D+00 0.366D+00 0.506D+00
 Gap=     0.323 Goal=   None    Shift=    0.000
 RMSDP=1.04D-05 MaxDP=2.11D-04 DE=-3.81D-05 OVMax= 4.51D-04

 Cycle   6  Pass 1  IDiag  1:
 E= -135.682923882552     Delta-E=       -0.000002385057 Rises=F Damp=F
 DIIS: error= 5.69D-05 at cycle   6 NSaved=   6.
 NSaved= 6 IEnMin= 6 EnMin= -135.682923882552     IErMin= 6 ErrMin= 5.69D-05
 ErrMax= 5.69D-05  0.00D+00 EMaxC= 1.00D-01 BMatC= 2.74D-07 BMatP= 3.05D-06
 IDIUse=1 WtCom= 1.00D+00 WtEn= 0.00D+00
 Coeff-Com: -0.662D-03 0.337D-02 0.318D-01 0.108D+00 0.272D+00 0.585D+00
 Coeff:     -0.662D-03 0.337D-02 0.318D-01 0.108D+00 0.272D+00 0.585D+00
 Gap=     0.323 Goal=   None    Shift=    0.000
 RMSDP=3.23D-06 MaxDP=5.67D-05 DE=-2.39D-06 OVMax= 1.20D-04

 Cycle   7  Pass 1  IDiag  1:
 E= -135.682924097726     Delta-E=       -0.000000215173 Rises=F Damp=F
 DIIS: error= 5.89D-06 at cycle   7 NSaved=   7.
 NSaved= 7 IEnMin= 7 EnMin= -135.682924097726     IErMin= 7 ErrMin= 5.89D-06
 ErrMax= 5.89D-06  0.00D+00 EMaxC= 1.00D-01 BMatC= 3.59D-09 BMatP= 2.74D-07
 IDIUse=1 WtCom= 1.00D+00 WtEn= 0.00D+00
 Coeff-Com: -0.121D-04 0.660D-04 0.152D-02 0.568D-02 0.393D-01 0.147D+00
 Coeff-Com:  0.806D+00
 Coeff:     -0.121D-04 0.660D-04 0.152D-02 0.568D-02 0.393D-01 0.147D+00
 Coeff:      0.806D+00
 Gap=     0.323 Goal=   None    Shift=    0.000
 RMSDP=5.69D-07 MaxDP=1.01D-05 DE=-2.15D-07 OVMax= 2.04D-05

 Cycle   8  Pass 1  IDiag  1:
 E= -135.682924097669     Delta-E=        0.000000000057 Rises=F Damp=F
 DIIS: error= 4.09D-06 at cycle   8 NSaved=   8.
 NSaved= 8 IEnMin= 7 EnMin= -135.682924097726     IErMin= 8 ErrMin= 4.09D-06
 ErrMax= 4.09D-06  0.00D+00 EMaxC= 1.00D-01 BMatC= 1.44D-09 BMatP= 3.59D-09
 IDIUse=1 WtCom= 1.00D+00 WtEn= 0.00D+00
 Coeff-Com:  0.227D-04-0.104D-03-0.529D-03-0.147D-02 0.972D-02 0.586D-01
 Coeff-Com:  0.458D+00 0.476D+00
 Coeff:      0.227D-04-0.104D-03-0.529D-03-0.147D-02 0.972D-02 0.586D-01
 Coeff:      0.458D+00 0.476D+00
 Gap=     0.323 Goal=   None    Shift=    0.000
 RMSDP=2.23D-07 MaxDP=5.13D-06 DE= 5.67D-11 OVMax= 9.64D-06

 Cycle   9  Pass 1  IDiag  1:
 E= -135.682924098935     Delta-E=       -0.000000001266 Rises=F Damp=F
 DIIS: error= 6.21D-07 at cycle   9 NSaved=   9.
 NSaved= 9 IEnMin= 9 EnMin= -135.682924098935     IErMin= 9 ErrMin= 6.21D-07
 ErrMax= 6.21D-07  0.00D+00 EMaxC= 1.00D-01 BMatC= 2.82D-11 BMatP= 1.44D-09
 IDIUse=1 WtCom= 1.00D+00 WtEn= 0.00D+00
 Coeff-Com:  0.426D-05-0.249D-04-0.190D-03-0.571D-03 0.723D-03 0.114D-01
 Coeff-Com:  0.956D-01 0.171D+00 0.722D+00
 Coeff:      0.426D-05-0.249D-04-0.190D-03-0.571D-03 0.723D-03 0.114D-01
 Coeff:      0.956D-01 0.171D+00 0.722D+00
 Gap=     0.323 Goal=   None    Shift=    0.000
 RMSDP=4.01D-08 MaxDP=4.79D-07 DE=-1.27D-09 OVMax= 1.62D-06

 Cycle  10  Pass 1  IDiag  1:
 E= -135.682924098962     Delta-E=       -0.000000000027 Rises=F Damp=F
 DIIS: error= 4.36D-08 at cycle  10 NSaved=  10.
 NSaved=10 IEnMin=10 EnMin= -135.682924098962     IErMin=10 ErrMin= 4.36D-08
 ErrMax= 4.36D-08  0.00D+00 EMaxC= 1.00D-01 BMatC= 1.72D-13 BMatP= 2.82D-11
 IDIUse=1 WtCom= 1.00D+00 WtEn= 0.00D+00
 Coeff-Com: -0.138D-06-0.294D-05-0.319D-04-0.929D-04 0.764D-05 0.101D-02
 Coeff-Com:  0.961D-02 0.218D-01 0.118D+00 0.850D+00
 Coeff:     -0.138D-06-0.294D-05-0.319D-04-0.929D-04 0.764D-05 0.101D-02
 Coeff:      0.961D-02 0.218D-01 0.118D+00 0.850D+00
 Gap=     0.323 Goal=   None    Shift=    0.000
 RMSDP=4.94D-09 MaxDP=7.12D-08 DE=-2.69D-11 OVMax= 1.38D-07

 Error on total polarization charges =  0.00511
 SCF Done:  E(RB-P86) =  -135.682924099     A.U. after   10 cycles
            NFock= 10  Conv=0.49D-08     -V/T= 2.0052
 KE= 1.349826024541D+02 PE=-4.891531092954D+02 EE= 1.278318793027D+02
 Leave Link  502 at Tue Feb 23 00:11:29 2021, MaxMem=   104857600 cpu:              74.5 elap:               2.5
 (Enter /sw/arch/RedHatEnterpriseServer7/EB_production/2019/software/Gaussian/g16.c01/l601.exe)
 Copying SCF densities to generalized density rwf, IOpCl= 0 IROHF=0.

 **********************************************************************

            Population analysis using the SCF Density.

 **********************************************************************

 Orbital symmetries:
       Occupied  (A') (A') (A') (A') (A') (A') (A") (A') (A') (A")
                 (A') (A') (A")
       Virtual   (A') (A') (A") (A') (A') (A") (A') (A') (A") (A')
                 (A') (A') (A") (A') (A") (A") (A') (A') (A') (A")
                 (A') (A') (A') (A") (A') (A') (A") (A') (A') (A')
                 (A') (A") (A') (A") (A') (A") (A') (A') (A") (A')
                 (A") (A") (A') (A") (A') (A') (A") (A') (A') (A")
                 (A") (A') (A") (A") (A') (A') (A') (A") (A') (A')
                 (A') (A') (A") (A') (A') (A") (A') (A') (A") (A")
                 (A') (A') (A") (A') (A') (A") (A') (A') (A") (A')
                 (A') (A') (A") (A') (A') (A") (A') (A") (A') (A')
                 (A') (A')
 The electronic state is 1-A'.
 Alpha  occ. eigenvalues --  -14.13850  -9.97072  -9.91193  -0.95295  -0.71842
 Alpha  occ. eigenvalues --   -0.60968  -0.56249  -0.55166  -0.47340  -0.41876
 Alpha  occ. eigenvalues --   -0.37060  -0.35678  -0.34045
 Alpha virt. eigenvalues --   -0.01741   0.03566   0.04024   0.04203   0.07166
 Alpha virt. eigenvalues --    0.08859   0.08938   0.09523   0.11082   0.13888
 Alpha virt. eigenvalues --    0.18179   0.18935   0.20025   0.21547   0.24239
 Alpha virt. eigenvalues --    0.29456   0.32233   0.34798   0.35880   0.38750
 Alpha virt. eigenvalues --    0.39157   0.39517   0.41204   0.43412   0.44209
 Alpha virt. eigenvalues --    0.45172   0.45441   0.52095   0.54807   0.65454
 Alpha virt. eigenvalues --    0.97818   0.99256   1.14624   1.14726   1.17804
 Alpha virt. eigenvalues --    1.20384   1.23018   1.26745   1.27090   1.29920
 Alpha virt. eigenvalues --    1.33627   1.42567   1.43639   1.45080   1.48604
 Alpha virt. eigenvalues --    1.50486   1.51348   1.59523   1.62922   1.65054
 Alpha virt. eigenvalues --    1.70597   1.71261   1.73676   1.75269   1.76269
 Alpha virt. eigenvalues --    1.77947   1.80658   1.83105   1.87508   1.94885
 Alpha virt. eigenvalues --    2.06225   2.10971   2.14378   2.19801   2.23795
 Alpha virt. eigenvalues --    2.27561   2.30505   2.34133   2.44648   2.47707
 Alpha virt. eigenvalues --    2.48724   2.51479   2.52377   2.54883   2.59071
 Alpha virt. eigenvalues --    2.59469   2.63311   2.73167   2.77422   2.78307
 Alpha virt. eigenvalues --    2.95430   3.05444   3.20815   3.21614   3.26328
 Alpha virt. eigenvalues --    3.26972   3.60821   3.76005   3.77224  21.64010
 Alpha virt. eigenvalues --   21.74275  31.27629
          Condensed to atoms (all electrons):
               1          2          3          4          5          6
     1  C    5.005486   0.297760  -0.055671   0.404998   0.401956   0.404998
     2  C    0.297760   5.066000   0.235547  -0.036669  -0.029894  -0.036669
     3  N   -0.055671   0.235547   6.044047  -0.002187   0.005612  -0.002187
     4  H    0.404998  -0.036669  -0.002187   0.527534  -0.018484  -0.030114
     5  H    0.401956  -0.029894   0.005612  -0.018484   0.487530  -0.018484
     6  H    0.404998  -0.036669  -0.002187  -0.030114  -0.018484   0.527534
     7  H   -0.034627   0.404862  -0.028273  -0.007261  -0.001609   0.006723
     8  H   -0.034627   0.404862  -0.028273   0.006723  -0.001609  -0.007261
     9  H   -0.004585  -0.023678   0.357071  -0.001427   0.000249   0.005313
    10  H   -0.004585  -0.023678   0.357071   0.005313   0.000249  -0.001427
    11  H    0.007904  -0.021008   0.351316  -0.000221  -0.000324  -0.000221
               7          8          9         10         11
     1  C   -0.034627  -0.034627  -0.004585  -0.004585   0.007904
     2  C    0.404862   0.404862  -0.023678  -0.023678  -0.021008
     3  N   -0.028273  -0.028273   0.357071   0.357071   0.351316
     4  H   -0.007261   0.006723  -0.001427   0.005313  -0.000221
     5  H   -0.001609  -0.001609   0.000249   0.000249  -0.000324
     6  H    0.006723  -0.007261   0.005313  -0.001427  -0.000221
     7  H    0.488666  -0.022870   0.005577  -0.006391  -0.003864
     8  H   -0.022870   0.488666  -0.006391   0.005577  -0.003864
     9  H    0.005577  -0.006391   0.368940  -0.014964  -0.011448
    10  H   -0.006391   0.005577  -0.014964   0.368940  -0.011448
    11  H   -0.003864  -0.003864  -0.011448  -0.011448   0.359889
 Mulliken charges:
               1
     1  C   -0.389007
     2  C   -0.237435
     3  N   -0.234072
     4  H    0.151797
     5  H    0.174808
     6  H    0.151797
     7  H    0.199068
     8  H    0.199068
     9  H    0.325343
    10  H    0.325343
    11  H    0.333289
 Sum of Mulliken charges =   1.00000
 Mulliken charges with hydrogens summed into heavy atoms:
               1
     1  C    0.089396
     2  C    0.160701
     3  N    0.749904
 Electronic spatial extent (au):  <R**2>=            205.2114
 Charge=              1.0000 electrons
 Dipole moment (field-independent basis, Debye):
    X=             -4.6000    Y=             -0.9175    Z=             -0.0000  Tot=              4.6907
 Quadrupole moment (field-independent basis, Debye-Ang):
   XX=             -9.9376   YY=            -16.1913   ZZ=            -16.5071
   XY=              1.6395   XZ=              0.0000   YZ=             -0.0000
 Traceless Quadrupole moment (field-independent basis, Debye-Ang):
   XX=              4.2744   YY=             -1.9793   ZZ=             -2.2951
   XY=              1.6395   XZ=              0.0000   YZ=             -0.0000
 Octapole moment (field-independent basis, Debye-Ang**2):
  XXX=            -20.2052  YYY=             -1.9057  ZZZ=              0.0000  XYY=             -4.6635
  XXY=             -0.3096  XXZ=             -0.0000  XZZ=             -4.8710  YZZ=             -2.2427
  YYZ=             -0.0000  XYZ=              0.0000
 Hexadecapole moment (field-independent basis, Debye-Ang**3):
 XXXX=           -129.5895 YYYY=            -55.3408 ZZZZ=            -32.0238 XXXY=              2.2593
 XXXZ=             -0.0000 YYYX=              3.9736 YYYZ=             -0.0000 ZZZX=              0.0000
 ZZZY=              0.0000 XXYY=            -32.9655 XXZZ=            -30.7728 YYZZ=            -10.7327
 XXYZ=              0.0000 YYXZ=             -0.0000 ZZXY=              1.9952
 N-N= 9.065570343960D+01 E-N=-4.891531071610D+02  KE= 1.349826024541D+02
 Symmetry A'   KE= 1.279714093343D+02
 Symmetry A"   KE= 7.011193119784D+00
 No NMR shielding tensors so no spin-rotation constants.
 Leave Link  601 at Tue Feb 23 00:11:30 2021, MaxMem=   104857600 cpu:               8.5 elap:               0.4
 (Enter /sw/arch/RedHatEnterpriseServer7/EB_production/2019/software/Gaussian/g16.c01/l701.exe)
 ... and contract with generalized density number  0.
 Compute integral first derivatives.
 R6Disp: Adding Grimme-D3 dispersion energy 1st derivatives to the gradient.
 PrsmSu:  requested number of processors reduced to:  30 ShMem   1 Linda.
 D1PCM: PCM CHGder 1st derivatives, ID1Alg=3 FixD1E=F DoIter=F DoCFld=F I1PDM=0.
 GePol: Maximum number of non-zero 1st derivatives   =     227
 CoulSu:  requested number of processors reduced to:  30 ShMem   1 Linda.
 CoulSu:  requested number of processors reduced to:  30 ShMem   1 Linda.
 Leave Link  701 at Tue Feb 23 00:11:30 2021, MaxMem=   104857600 cpu:              15.7 elap:               0.6
 (Enter /sw/arch/RedHatEnterpriseServer7/EB_production/2019/software/Gaussian/g16.c01/l702.exe)
 L702 exits ... SP integral derivatives will be done elsewhere.
 Leave Link  702 at Tue Feb 23 00:11:31 2021, MaxMem=   104857600 cpu:               0.5 elap:               0.0
 (Enter /sw/arch/RedHatEnterpriseServer7/EB_production/2019/software/Gaussian/g16.c01/l703.exe)
 Integral derivatives from FoFJK, PRISM(SPDF).
 Compute integral first derivatives, UseDBF=F ICtDFT=           0.
 Calling FoFJK, ICntrl=      2527 FMM=F ISym2X=1 I1Cent= 0 IOpClX= 0 NMat=1 NMatS=1 NMatT=0.
 FoFJK:  IHMeth= 1 ICntrl=    2527 DoSepK=F KAlg= 0 I1Cent=           0 FoldK=F
 IRaf=         0 NMat=       1 IRICut=       1 DoRegI=T DoRafI=F ISym2E= 1 IDoP0=0 IntGTp=1.
 FoFCou: FMM=F IPFlag=           0 FMFlag=      100000 FMFlg1=         800
         NFxFlg=           0 DoJE=F BraDBF=F KetDBF=F FulRan=T
         wScrn=  0.000000 ICntrl=      2527 IOpCl=  0 I1Cent=           0 NGrid=           0
         NMat0=    1 NMatS0=      1 NMatT0=    0 NMatD0=    1 NMtDS0=    0 NMtDT0=    0
 Petite list used in FoFCou.
 Leave Link  703 at Tue Feb 23 00:11:31 2021, MaxMem=   104857600 cpu:              10.9 elap:               0.4
 (Enter /sw/arch/RedHatEnterpriseServer7/EB_production/2019/software/Gaussian/g16.c01/l716.exe)
 Dipole        =-1.80979771D+00-3.60964824D-01-2.61343128D-16
 ***** Axes restored to original set *****
 -------------------------------------------------------------------
 Center     Atomic                   Forces (Hartrees/Bohr)
 Number     Number              X              Y              Z
 -------------------------------------------------------------------
      1        6           0.012475534    0.002128860    0.000000000
      2        6          -0.025101227   -0.027722500   -0.000000000
      3        7           0.004751213    0.000876647    0.000000000
      4        1          -0.003525575    0.001836928    0.004724734
      5        1          -0.000525329   -0.003915648   -0.000000000
      6        1          -0.003525575    0.001836928   -0.004724734
      7        1           0.003942234    0.000752382    0.002462226
      8        1           0.003942234    0.000752382   -0.002462226
      9        1           0.000388956    0.008493172   -0.004184140
     10        1           0.000388956    0.008493172    0.004184140
     11        1           0.006788580    0.006467678   -0.000000000
 -------------------------------------------------------------------
 Cartesian Forces:  Max     0.027722500 RMS     0.007757351
 Leave Link  716 at Tue Feb 23 00:11:31 2021, MaxMem=   104857600 cpu:               0.8 elap:               0.1
 (Enter /sw/arch/RedHatEnterpriseServer7/EB_production/2019/software/Gaussian/g16.c01/l103.exe)

 GradGradGradGradGradGradGradGradGradGradGradGradGradGradGradGradGradGrad
 Berny optimization.
 FormGI is forming the generalized inverse of G from B-inverse, IUseBI=4.
 Internal  Forces:  Max     0.027030622 RMS     0.005298933
 Search for a local minimum.
 Step number   1 out of a maximum of   56
 All quantities printed in internal units (Hartrees-Bohrs-Radians)
 RMS Force = .52989D-02 SwitMx=.10000D-02 MixMth= 1
 Mixed Optimization -- RFO/linear search
 Second derivative matrix not updated -- first step.
 ITU=  0
     Eigenvalues ---    0.00230   0.00816   0.03955   0.05028   0.05577
     Eigenvalues ---    0.05596   0.06051   0.06115   0.07970   0.11892
     Eigenvalues ---    0.16000   0.16000   0.16000   0.16000   0.16000
     Eigenvalues ---    0.16000   0.21926   0.28427   0.34569   0.34569
     Eigenvalues ---    0.34707   0.34707   0.34752   0.36201   0.44134
     Eigenvalues ---    0.44198   0.44198
 RFO step:  Lambda=-4.64192449D-03 EMin= 2.30000000D-03
 Linear search not attempted -- first point.
 Iteration  1 RMS(Cart)=  0.03267084 RMS(Int)=  0.00063075
 Iteration  2 RMS(Cart)=  0.00066262 RMS(Int)=  0.00030906
 Iteration  3 RMS(Cart)=  0.00000051 RMS(Int)=  0.00030905
 ITry= 1 IFail=0 DXMaxC= 8.37D-02 DCOld= 1.00D+10 DXMaxT= 3.00D-01 DXLimC= 3.00D+00 Rises=F
 ClnCor:  largest displacement from symmetrization is 6.99D-11 for atom    10.
 Variable       Old X    -DE/DX   Delta X   Delta X   Delta X     New X
                                 (Linear)    (Quad)   (Total)
    R1        2.91214  -0.00487   0.00000  -0.01686  -0.01686   2.89528
    R2        2.06154   0.00594   0.00000   0.01688   0.01688   2.07842
    R3        2.06080   0.00384   0.00000   0.01092   0.01092   2.07172
    R4        2.06154   0.00594   0.00000   0.01688   0.01688   2.07842
    R5        2.77069   0.02703   0.00000   0.07372   0.07372   2.84441
    R6        2.06380   0.00300   0.00000   0.00857   0.00857   2.07237
    R7        2.06380   0.00300   0.00000   0.00857   0.00857   2.07237
    R8        1.92919   0.00729   0.00000   0.01632   0.01632   1.94550
    R9        1.92919   0.00729   0.00000   0.01632   0.01632   1.94550
   R10        1.92994   0.00681   0.00000   0.01527   0.01527   1.94521
    A1        1.92334   0.00228   0.00000   0.01609   0.01596   1.93929
    A2        1.92163  -0.00222   0.00000  -0.01800  -0.01793   1.90370
    A3        1.92334   0.00228   0.00000   0.01609   0.01596   1.93929
    A4        1.89747  -0.00056   0.00000  -0.00782  -0.00775   1.88972
    A5        1.90009  -0.00128   0.00000   0.00103   0.00071   1.90080
    A6        1.89747  -0.00056   0.00000  -0.00782  -0.00775   1.88972
    A7        1.92248   0.00308   0.00000   0.01413   0.01429   1.93677
    A8        1.92033   0.00115   0.00000   0.02061   0.02069   1.94102
    A9        1.92033   0.00115   0.00000   0.02061   0.02069   1.94102
   A10        1.90320  -0.00298   0.00000  -0.02803  -0.02831   1.87489
   A11        1.90320  -0.00298   0.00000  -0.02803  -0.02831   1.87489
   A12        1.89390   0.00047   0.00000  -0.00038  -0.00137   1.89253
   A13        1.90889   0.00572   0.00000   0.03453   0.03389   1.94278
   A14        1.90889   0.00572   0.00000   0.03453   0.03389   1.94278
   A15        1.91834   0.00636   0.00000   0.03910   0.03838   1.95673
   A16        1.90787  -0.00581   0.00000  -0.03625  -0.03678   1.87108
   A17        1.90989  -0.00603   0.00000  -0.03612  -0.03679   1.87311
   A18        1.90989  -0.00603   0.00000  -0.03612  -0.03679   1.87311
    D1       -1.04865  -0.00066   0.00000  -0.01093  -0.01104  -1.05968
    D2        1.05003  -0.00167   0.00000  -0.02358  -0.02372   1.02631
    D3        3.13585   0.00035   0.00000   0.00172   0.00165   3.13751
    D4        3.14159   0.00000   0.00000   0.00000   0.00000   3.14159
    D5       -1.04291  -0.00101   0.00000  -0.01265  -0.01269  -1.05560
    D6        1.04291   0.00101   0.00000   0.01265   0.01269   1.05560
    D7        1.04865   0.00066   0.00000   0.01093   0.01104   1.05968
    D8       -3.13585  -0.00035   0.00000  -0.00172  -0.00165  -3.13751
    D9       -1.05003   0.00167   0.00000   0.02358   0.02372  -1.02631
   D10       -1.04444   0.00008   0.00000   0.00123   0.00126  -1.04318
   D11        1.04444  -0.00008   0.00000  -0.00123  -0.00126   1.04318
   D12        3.14159   0.00000   0.00000   0.00000   0.00000   3.14159
   D13        3.12975  -0.00136   0.00000  -0.01521  -0.01489   3.11486
   D14       -1.06454  -0.00152   0.00000  -0.01766  -0.01741  -1.08196
   D15        1.03261  -0.00144   0.00000  -0.01643  -0.01615   1.01645
   D16        1.06454   0.00152   0.00000   0.01766   0.01741   1.08196
   D17       -3.12975   0.00136   0.00000   0.01521   0.01489  -3.11486
   D18       -1.03261   0.00144   0.00000   0.01643   0.01615  -1.01645
         Item               Value     Threshold  Converged?
 Maximum Force            0.027031     0.000450     NO 
 RMS     Force            0.005299     0.000300     NO 
 Maximum Displacement     0.083661     0.001800     NO 
 RMS     Displacement     0.032854     0.001200     NO 
 Predicted change in Energy=-2.369173D-03
 Lowest energy point so far.  Saving SCF results.
 GradGradGradGradGradGradGradGradGradGradGradGradGradGradGradGradGradGrad

 Leave Link  103 at Tue Feb 23 00:11:31 2021, MaxMem=   104857600 cpu:               5.4 elap:               0.2
 (Enter /sw/arch/RedHatEnterpriseServer7/EB_production/2019/software/Gaussian/g16.c01/l202.exe)
                          Input orientation:                          
 ---------------------------------------------------------------------
 Center     Atomic      Atomic             Coordinates (Angstroms)
 Number     Number       Type             X           Y           Z
 ---------------------------------------------------------------------
      1          6           0       -0.025967   -0.016978    0.000000
      2          6           0        1.506147   -0.018288    0.000000
      3          7           0        2.045989    1.386770    0.000000
      4          1           0       -0.421722    0.485236    0.894895
      5          1           0       -0.385112   -1.052786    0.000000
      6          1           0       -0.421722    0.485236   -0.894895
      7          1           0        1.902509   -0.522344    0.889643
      8          1           0        1.902509   -0.522344   -0.889643
      9          1           0        1.729434    1.909252   -0.828680
     10          1           0        1.729434    1.909252    0.828680
     11          1           0        3.075161    1.406436    0.000000
 ---------------------------------------------------------------------
                    Distance matrix (angstroms):
                    1          2          3          4          5
     1  C    0.000000
     2  C    1.532115   0.000000
     3  N    2.502701   1.505196   0.000000
     4  H    1.099853   2.184274   2.775464   0.000000
     5  H    1.096305   2.155702   3.444080   1.779800   0.000000
     6  H    1.099853   2.184274   2.775464   1.789790   1.779800
     7  H    2.183090   1.096650   2.111105   2.533238   2.511185
     8  H    2.183090   1.096650   2.111105   3.098684   2.511185
     9  H    2.734685   2.109970   1.029517   3.102580   3.732517
    10  H    2.734685   2.109970   1.029517   2.580635   3.732517
    11  H    3.412199   2.119349   1.029359   3.725270   4.245146
                    6          7          8          9         10
     6  H    0.000000
     7  H    3.098684   0.000000
     8  H    2.533238   1.779286   0.000000
     9  H    2.580635   2.982490   2.438510   0.000000
    10  H    3.102580   2.438510   2.982490   1.657359   0.000000
    11  H    3.725270   2.426267   2.426267   1.658467   1.658467
                   11
    11  H    0.000000
 Stoichiometry    C2H8N(1+)
 Framework group  CS[SG(C2H2N),X(H6)]
 Deg. of freedom    16
 Full point group                 CS      NOp   2
 RotChk:  IX=0 Diff= 6.15D-02
 Largest Abelian subgroup         CS      NOp   2
 Largest concise Abelian subgroup CS      NOp   2
                         Standard orientation:                         
 ---------------------------------------------------------------------
 Center     Atomic      Atomic             Coordinates (Angstroms)
 Number     Number       Type             X           Y           Z
 ---------------------------------------------------------------------
      1          6           0        1.317219   -0.175929    0.000000
      2          6           0       -0.000000    0.606573    0.000000
      3          7           0       -1.180935   -0.326705    0.000000
      4          1           0        1.401510   -0.809755    0.894895
      5          1           0        2.154407    0.531885    0.000000
      6          1           0        1.401510   -0.809755   -0.894895
      7          1           0       -0.083874    1.242294    0.889643
      8          1           0       -0.083874    1.242294   -0.889643
      9          1           0       -1.175107   -0.937574   -0.828680
     10          1           0       -1.175107   -0.937574    0.828680
     11          1           0       -2.076234    0.181254    0.000000
 ---------------------------------------------------------------------
 Rotational constants (GHZ):          29.4311701           8.2925979           7.3320308
 Leave Link  202 at Tue Feb 23 00:11:31 2021, MaxMem=   104857600 cpu:               0.8 elap:               0.1
 (Enter /sw/arch/RedHatEnterpriseServer7/EB_production/2019/software/Gaussian/g16.c01/l301.exe)
 Standard basis: TZVP (5D, 7F)
 Ernie: Thresh=  0.10000D-02 Tol=  0.10000D-05 Strict=F.
 There are    73 symmetry adapted cartesian basis functions of A'  symmetry.
 There are    35 symmetry adapted cartesian basis functions of A"  symmetry.
 There are    70 symmetry adapted basis functions of A'  symmetry.
 There are    35 symmetry adapted basis functions of A"  symmetry.
   105 basis functions,   169 primitive gaussians,   108 cartesian basis functions
    13 alpha electrons       13 beta electrons
       nuclear repulsion energy        89.6331587455 Hartrees.
 IExCor=  404 DFT=T Ex=B Corr=P86 ExCW=0 ScaHFX=  0.000000
 ScaDFX=  1.000000  1.000000  1.000000  1.000000 ScalE2=  1.000000  1.000000
 IRadAn=      5 IRanWt=     -1 IRanGd=            0 ICorTp=0 IEmpDi=131
 NAtoms=   11 NActive=   11 NUniq=    8 SFac= 1.89D+00 NAtFMM=   60 NAOKFM=F Big=F
 Integral buffers will be    131072 words long.
 Raffenetti 2 integral format.
 Two-electron integral symmetry is turned on.
 R6Disp:  Grimme-D3 Dispersion energy=       -0.0052025205 Hartrees.
 Nuclear repulsion after empirical dispersion term =       89.6279562250 Hartrees.
 ------------------------------------------------------------------------------
 Polarizable Continuum Model (PCM)
 =================================
 Model                : PCM.
 Atomic radii         : UFF (Universal Force Field).
 Polarization charges : Total charges.
 Charge compensation  : None.
 Solution method      : On-the-fly selection.
 Cavity type          : Scaled VdW (van der Waals Surface) (Alpha=1.100).
 Cavity algorithm     : GePol (No added spheres)
                        Default sphere list used, NSphG=   11.
                        Lebedev-Laikov grids with approx.  5.0 points / Ang**2.
                        Smoothing algorithm: York/Karplus (Gamma=1.0000).
                        Polarization charges: spherical gaussians, with
                                              point-specific exponents (IZeta= 3).
                        Self-potential: point-specific (ISelfS= 7).
                        Self-field    : sphere-specific E.n sum rule (ISelfD= 2).
 1st derivatives      : Analytical E(r).r(x)/FMM algorithm (CHGder, D1EAlg=3).
                        Cavity 1st derivative terms included.
 Solvent              : Water, Eps=  78.355300 Eps(inf)=   1.777849
 ------------------------------------------------------------------------------
 Spheres list:
 ISph  on   Nord     Re0    Alpha      Xe            Ye            Ze
    1   C      1    1.9255  1.100      1.317219     -0.175929      0.000000
    2   C      2    1.9255  1.100     -0.000000      0.606573      0.000000
    3   N      3    1.8300  1.100     -1.180935     -0.326705      0.000000
    4   H      4    1.4430  1.100      1.401510     -0.809755      0.894895
    5   H      5    1.4430  1.100      2.154407      0.531885      0.000000
    6   H      6    1.4430  1.100      1.401510     -0.809755     -0.894895
    7   H      7    1.4430  1.100     -0.083874      1.242294      0.889643
    8   H      8    1.4430  1.100     -0.083874      1.242294     -0.889643
    9   H      9    1.4430  1.100     -1.175107     -0.937574     -0.828680
   10   H     10    1.4430  1.100     -1.175107     -0.937574      0.828680
   11   H     11    1.4430  1.100     -2.076234      0.181254      0.000000
 ------------------------------------------------------------------------------
 GePol: Number of generator spheres                  =      11
 GePol: Total number of spheres                      =      11
 GePol: Number of exposed spheres                    =      11 (100.00%)
 GePol: Number of points                             =     900
 GePol: Average weight of points                     =       0.13
 GePol: Minimum weight of points                     =   0.23D-06
 GePol: Maximum weight of points                     =    0.20577
 GePol: Number of points with low weight             =      59
 GePol: Fraction of low-weight points (<1% of avg)   =       6.56%
 GePol: Cavity surface area                          =    118.765 Ang**2
 GePol: Cavity volume                                =    101.001 Ang**3
 Leave Link  301 at Tue Feb 23 00:11:32 2021, MaxMem=   104857600 cpu:               1.9 elap:               0.1
 (Enter /sw/arch/RedHatEnterpriseServer7/EB_production/2019/software/Gaussian/g16.c01/l302.exe)
 NPDir=0 NMtPBC=     1 NCelOv=     1 NCel=       1 NClECP=     1 NCelD=      1
         NCelK=      1 NCelE2=     1 NClLst=     1 CellRange=     0.0.
 One-electron integrals computed using PRISM.
 One-electron integral symmetry used in STVInt
 PrsmSu:  requested number of processors reduced to:  30 ShMem   1 Linda.
 NBasis=   105 RedAO= T EigKep=  5.42D-04  NBF=    70    35
 NBsUse=   105 1.00D-06 EigRej= -1.00D+00 NBFU=    70    35
 Precomputing XC quadrature grid using
 IXCGrd= 4 IRadAn=           5 IRanWt=          -1 IRanGd=           0 AccXCQ= 0.00D+00.
 Generated NRdTot=       0 NPtTot=           0 NUsed=           0 NTot=          32
 NSgBfM=   108   108   108   108   108 MxSgAt=    11 MxSgA2=    11.
 Leave Link  302 at Tue Feb 23 00:11:32 2021, MaxMem=   104857600 cpu:               7.6 elap:               0.3
 (Enter /sw/arch/RedHatEnterpriseServer7/EB_production/2019/software/Gaussian/g16.c01/l303.exe)
 DipDrv:  MaxL=1.
 Leave Link  303 at Tue Feb 23 00:11:32 2021, MaxMem=   104857600 cpu:               2.1 elap:               0.1
 (Enter /sw/arch/RedHatEnterpriseServer7/EB_production/2019/software/Gaussian/g16.c01/l401.exe)
 Initial guess from the checkpoint file:  "QUSNBJAOOMFDIB-UHFFFAOYSA-O.chk"
 B after Tr=     0.000000   -0.000000   -0.000000
         Rot=    0.999793   -0.000000    0.000000   -0.020360 Ang=  -2.33 deg.
 Guess basis will be translated and rotated to current coordinates.
 JPrj=2 DoOrth=T DoCkMO=T.
 Initial guess orbital symmetries:
       Occupied  (A') (A') (A') (A') (A') (A') (A") (A') (A') (A")
                 (A') (A') (A")
       Virtual   (A') (A') (A") (A') (A') (A") (A') (A') (A") (A')
                 (A') (A') (A") (A') (A") (A") (A') (A') (A') (A")
                 (A') (A') (A') (A") (A') (A') (A") (A') (A') (A')
                 (A') (A") (A') (A") (A') (A") (A') (A') (A") (A')
                 (A") (A") (A') (A") (A') (A') (A") (A') (A') (A")
                 (A") (A') (A") (A") (A') (A') (A') (A") (A') (A')
                 (A') (A') (A") (A') (A') (A") (A') (A') (A") (A")
                 (A') (A') (A") (A') (A') (A") (A') (A') (A") (A')
                 (A') (A') (A") (A') (A') (A") (A') (A") (A') (A')
                 (A') (A')
 The electronic state of the initial guess is 1-A'.
 Generating alternative initial guess.
 ExpMin= 9.52D-02 ExpMax= 1.97D+04 ExpMxC= 6.73D+02 IAcc=3 IRadAn=         5 AccDes= 0.00D+00
 Harris functional with IExCor=  404 and IRadAn=       5 diagonalized for initial guess.
 HarFok:  IExCor=  404 AccDes= 0.00D+00 IRadAn=         5 IDoV= 1 UseB2=F ITyADJ=14
 ICtDFT=  3500011 ScaDFX=  1.000000  1.000000  1.000000  1.000000
 FoFCou: FMM=F IPFlag=           0 FMFlag=      100000 FMFlg1=           0
         NFxFlg=           0 DoJE=T BraDBF=F KetDBF=T FulRan=T
         wScrn=  0.000000 ICntrl=       500 IOpCl=  0 I1Cent=   200000004 NGrid=           0
         NMat0=    1 NMatS0=      1 NMatT0=    0 NMatD0=    1 NMtDS0=    0 NMtDT0=    0
 Petite list used in FoFCou.
 Harris En= -135.725367616150    
 Leave Link  401 at Tue Feb 23 00:11:32 2021, MaxMem=   104857600 cpu:               9.0 elap:               0.3
 (Enter /sw/arch/RedHatEnterpriseServer7/EB_production/2019/software/Gaussian/g16.c01/l502.exe)
 Keep J ints in memory in symmetry-blocked form, NReq=45423652.
 FoFCou: FMM=F IPFlag=           0 FMFlag=           0 FMFlg1=           0
         NFxFlg=           0 DoJE=F BraDBF=F KetDBF=F FulRan=T
         wScrn=  0.000000 ICntrl=       600 IOpCl=  0 I1Cent=           0 NGrid=           0
         NMat0=    1 NMatS0=   5565 NMatT0=    0 NMatD0=    1 NMtDS0=    0 NMtDT0=    0
 Petite list used in FoFCou.
 Closed shell SCF:
 Using DIIS extrapolation, IDIIS=  1040.
 NGot=   104857600 LenX=    96961044 LenY=    96948939
 Requested convergence on RMS density matrix=1.00D-08 within 128 cycles.
 Requested convergence on MAX density matrix=1.00D-06.
 Requested convergence on             energy=1.00D-06.
 No special actions if energy rises.

 Cycle   1  Pass 1  IDiag  1:
 Inv3:  Mode=1 IEnd=     2430000.
 Iteration    1 A*A^-1 deviation from unit magnitude is 2.55D-15 for    242.
 Iteration    1 A*A^-1 deviation from orthogonality  is 2.47D-15 for    670      6.
 Iteration    1 A^-1*A deviation from unit magnitude is 3.11D-15 for    792.
 Iteration    1 A^-1*A deviation from orthogonality  is 1.39D-14 for    696    670.
 E= -135.684680965722    
 DIIS: error= 2.16D-03 at cycle   1 NSaved=   1.
 NSaved= 1 IEnMin= 1 EnMin= -135.684680965722     IErMin= 1 ErrMin= 2.16D-03
 ErrMax= 2.16D-03  0.00D+00 EMaxC= 1.00D-01 BMatC= 8.03D-04 BMatP= 8.03D-04
 IDIUse=3 WtCom= 9.78D-01 WtEn= 2.16D-02
 Coeff-Com:  0.100D+01
 Coeff-En:   0.100D+01
 Coeff:      0.100D+01
 Gap=     0.325 Goal=   None    Shift=    0.000
 GapD=    0.325 DampG=1.000 DampE=1.000 DampFc=1.0000 IDamp=-1.
 RMSDP=3.72D-04 MaxDP=4.44D-03              OVMax= 1.02D-02

 Cycle   2  Pass 1  IDiag  1:
 E= -135.685394367730     Delta-E=       -0.000713402009 Rises=F Damp=F
 DIIS: error= 1.56D-03 at cycle   2 NSaved=   2.
 NSaved= 2 IEnMin= 2 EnMin= -135.685394367730     IErMin= 2 ErrMin= 1.56D-03
 ErrMax= 1.56D-03  0.00D+00 EMaxC= 1.00D-01 BMatC= 2.15D-04 BMatP= 8.03D-04
 IDIUse=3 WtCom= 9.84D-01 WtEn= 1.56D-02
 Coeff-Com:  0.281D+00 0.719D+00
 Coeff-En:   0.000D+00 0.100D+01
 Coeff:      0.277D+00 0.723D+00
 Gap=     0.321 Goal=   None    Shift=    0.000
 RMSDP=1.31D-04 MaxDP=2.88D-03 DE=-7.13D-04 OVMax= 5.89D-03

 Cycle   3  Pass 1  IDiag  1:
 E= -135.685434084348     Delta-E=       -0.000039716617 Rises=F Damp=F
 DIIS: error= 1.40D-03 at cycle   3 NSaved=   3.
 NSaved= 3 IEnMin= 3 EnMin= -135.685434084348     IErMin= 3 ErrMin= 1.40D-03
 ErrMax= 1.40D-03  0.00D+00 EMaxC= 1.00D-01 BMatC= 1.65D-04 BMatP= 2.15D-04
 IDIUse=3 WtCom= 9.86D-01 WtEn= 1.40D-02
 Coeff-Com:  0.151D-01 0.466D+00 0.519D+00
 Coeff-En:   0.000D+00 0.447D+00 0.553D+00
 Coeff:      0.149D-01 0.465D+00 0.520D+00
 Gap=     0.321 Goal=   None    Shift=    0.000
 RMSDP=6.11D-05 MaxDP=1.43D-03 DE=-3.97D-05 OVMax= 2.88D-03

 Cycle   4  Pass 1  IDiag  1:
 E= -135.685568398163     Delta-E=       -0.000134313815 Rises=F Damp=F
 DIIS: error= 1.24D-04 at cycle   4 NSaved=   4.
 NSaved= 4 IEnMin= 4 EnMin= -135.685568398163     IErMin= 4 ErrMin= 1.24D-04
 ErrMax= 1.24D-04  0.00D+00 EMaxC= 1.00D-01 BMatC= 1.44D-06 BMatP= 1.65D-04
 IDIUse=3 WtCom= 9.99D-01 WtEn= 1.24D-03
 Coeff-Com:  0.222D-02 0.195D+00 0.237D+00 0.566D+00
 Coeff-En:   0.000D+00 0.000D+00 0.000D+00 0.100D+01
 Coeff:      0.222D-02 0.195D+00 0.237D+00 0.566D+00
 Gap=     0.321 Goal=   None    Shift=    0.000
 RMSDP=8.72D-06 MaxDP=1.31D-04 DE=-1.34D-04 OVMax= 3.79D-04

 Cycle   5  Pass 1  IDiag  1:
 E= -135.685569558934     Delta-E=       -0.000001160772 Rises=F Damp=F
 DIIS: error= 5.71D-05 at cycle   5 NSaved=   5.
 NSaved= 5 IEnMin= 5 EnMin= -135.685569558934     IErMin= 5 ErrMin= 5.71D-05
 ErrMax= 5.71D-05  0.00D+00 EMaxC= 1.00D-01 BMatC= 2.05D-07 BMatP= 1.44D-06
 IDIUse=1 WtCom= 1.00D+00 WtEn= 0.00D+00
 Coeff-Com: -0.151D-03 0.706D-01 0.916D-01 0.317D+00 0.521D+00
 Coeff:     -0.151D-03 0.706D-01 0.916D-01 0.317D+00 0.521D+00
 Gap=     0.321 Goal=   None    Shift=    0.000
 RMSDP=2.75D-06 MaxDP=5.66D-05 DE=-1.16D-06 OVMax= 1.18D-04

 Cycle   6  Pass 1  IDiag  1:
 E= -135.685569696083     Delta-E=       -0.000000137149 Rises=F Damp=F
 DIIS: error= 4.14D-06 at cycle   6 NSaved=   6.
 NSaved= 6 IEnMin= 6 EnMin= -135.685569696083     IErMin= 6 ErrMin= 4.14D-06
 ErrMax= 4.14D-06  0.00D+00 EMaxC= 1.00D-01 BMatC= 2.28D-09 BMatP= 2.05D-07
 IDIUse=1 WtCom= 1.00D+00 WtEn= 0.00D+00
 Coeff-Com: -0.106D-03 0.867D-02 0.127D-01 0.528D-01 0.151D+00 0.775D+00
 Coeff:     -0.106D-03 0.867D-02 0.127D-01 0.528D-01 0.151D+00 0.775D+00
 Gap=     0.321 Goal=   None    Shift=    0.000
 RMSDP=3.69D-07 MaxDP=4.29D-06 DE=-1.37D-07 OVMax= 1.75D-05

 Cycle   7  Pass 1  IDiag  1:
 E= -135.685569698275     Delta-E=       -0.000000002192 Rises=F Damp=F
 DIIS: error= 7.14D-07 at cycle   7 NSaved=   7.
 NSaved= 7 IEnMin= 7 EnMin= -135.685569698275     IErMin= 7 ErrMin= 7.14D-07
 ErrMax= 7.14D-07  0.00D+00 EMaxC= 1.00D-01 BMatC= 3.46D-11 BMatP= 2.28D-09
 IDIUse=1 WtCom= 1.00D+00 WtEn= 0.00D+00
 Coeff-Com: -0.244D-04 0.804D-03 0.138D-02 0.705D-02 0.280D-01 0.207D+00
 Coeff-Com:  0.756D+00
 Coeff:     -0.244D-04 0.804D-03 0.138D-02 0.705D-02 0.280D-01 0.207D+00
 Coeff:      0.756D+00
 Gap=     0.321 Goal=   None    Shift=    0.000
 RMSDP=6.42D-08 MaxDP=1.08D-06 DE=-2.19D-09 OVMax= 2.76D-06

 Cycle   8  Pass 1  IDiag  1:
 E= -135.685569698307     Delta-E=       -0.000000000032 Rises=F Damp=F
 DIIS: error= 2.13D-07 at cycle   8 NSaved=   8.
 NSaved= 8 IEnMin= 8 EnMin= -135.685569698307     IErMin= 8 ErrMin= 2.13D-07
 ErrMax= 2.13D-07  0.00D+00 EMaxC= 1.00D-01 BMatC= 5.49D-12 BMatP= 3.46D-11
 IDIUse=1 WtCom= 1.00D+00 WtEn= 0.00D+00
 Coeff-Com: -0.825D-05 0.158D-03 0.320D-03 0.175D-02 0.874D-02 0.744D-01
 Coeff-Com:  0.366D+00 0.549D+00
 Coeff:     -0.825D-05 0.158D-03 0.320D-03 0.175D-02 0.874D-02 0.744D-01
 Coeff:      0.366D+00 0.549D+00
 Gap=     0.321 Goal=   None    Shift=    0.000
 RMSDP=1.72D-08 MaxDP=3.55D-07 DE=-3.21D-11 OVMax= 8.81D-07

 Cycle   9  Pass 1  IDiag  1:
 E= -135.685569698312     Delta-E=       -0.000000000005 Rises=F Damp=F
 DIIS: error= 5.98D-08 at cycle   9 NSaved=   9.
 NSaved= 9 IEnMin= 9 EnMin= -135.685569698312     IErMin= 9 ErrMin= 5.98D-08
 ErrMax= 5.98D-08  0.00D+00 EMaxC= 1.00D-01 BMatC= 5.71D-13 BMatP= 5.49D-12
 IDIUse=1 WtCom= 1.00D+00 WtEn= 0.00D+00
 Coeff-Com: -0.668D-06-0.402D-04-0.362D-04-0.142D-03 0.584D-03 0.887D-02
 Coeff-Com:  0.759D-01 0.272D+00 0.643D+00
 Coeff:     -0.668D-06-0.402D-04-0.362D-04-0.142D-03 0.584D-03 0.887D-02
 Coeff:      0.759D-01 0.272D+00 0.643D+00
 Gap=     0.321 Goal=   None    Shift=    0.000
 RMSDP=5.34D-09 MaxDP=9.29D-08 DE=-4.86D-12 OVMax= 2.23D-07

 Error on total polarization charges =  0.00532
 SCF Done:  E(RB-P86) =  -135.685569698     A.U. after    9 cycles
            NFock=  9  Conv=0.53D-08     -V/T= 2.0062
 KE= 1.348468076487D+02 PE=-4.870824618269D+02 EE= 1.269221282549D+02
 Leave Link  502 at Tue Feb 23 00:11:34 2021, MaxMem=   104857600 cpu:              53.5 elap:               1.8
 (Enter /sw/arch/RedHatEnterpriseServer7/EB_production/2019/software/Gaussian/g16.c01/l701.exe)
 ... and contract with generalized density number  0.
 Compute integral first derivatives.
 R6Disp: Adding Grimme-D3 dispersion energy 1st derivatives to the gradient.
 PrsmSu:  requested number of processors reduced to:  30 ShMem   1 Linda.
 D1PCM: PCM CHGder 1st derivatives, ID1Alg=3 FixD1E=F DoIter=F DoCFld=F I1PDM=0.
 GePol: Maximum number of non-zero 1st derivatives   =     226
 CoulSu:  requested number of processors reduced to:  30 ShMem   1 Linda.
 CoulSu:  requested number of processors reduced to:  30 ShMem   1 Linda.
 Leave Link  701 at Tue Feb 23 00:11:35 2021, MaxMem=   104857600 cpu:              15.7 elap:               0.6
 (Enter /sw/arch/RedHatEnterpriseServer7/EB_production/2019/software/Gaussian/g16.c01/l702.exe)
 L702 exits ... SP integral derivatives will be done elsewhere.
 Leave Link  702 at Tue Feb 23 00:11:35 2021, MaxMem=   104857600 cpu:               0.7 elap:               0.0
 (Enter /sw/arch/RedHatEnterpriseServer7/EB_production/2019/software/Gaussian/g16.c01/l703.exe)
 Integral derivatives from FoFJK, PRISM(SPDF).
 Compute integral first derivatives, UseDBF=F ICtDFT=           0.
 Calling FoFJK, ICntrl=      2527 FMM=F ISym2X=1 I1Cent= 0 IOpClX= 0 NMat=1 NMatS=1 NMatT=0.
 FoFJK:  IHMeth= 1 ICntrl=    2527 DoSepK=F KAlg= 0 I1Cent=           0 FoldK=F
 IRaf=         0 NMat=       1 IRICut=       1 DoRegI=T DoRafI=F ISym2E= 1 IDoP0=0 IntGTp=1.
 FoFCou: FMM=F IPFlag=           0 FMFlag=      100000 FMFlg1=         800
         NFxFlg=           0 DoJE=F BraDBF=F KetDBF=F FulRan=T
         wScrn=  0.000000 ICntrl=      2527 IOpCl=  0 I1Cent=           0 NGrid=           0
         NMat0=    1 NMatS0=      1 NMatT0=    0 NMatD0=    1 NMtDS0=    0 NMtDT0=    0
 Petite list used in FoFCou.
 Leave Link  703 at Tue Feb 23 00:11:36 2021, MaxMem=   104857600 cpu:               7.3 elap:               0.3
 (Enter /sw/arch/RedHatEnterpriseServer7/EB_production/2019/software/Gaussian/g16.c01/l716.exe)
 Dipole        =-1.82660412D+00-4.50133499D-01-1.69327875D-16
 ***** Axes restored to original set *****
 -------------------------------------------------------------------
 Center     Atomic                   Forces (Hartrees/Bohr)
 Number     Number              X              Y              Z
 -------------------------------------------------------------------
      1        6           0.005313934    0.003339815    0.000000000
      2        6          -0.009280219   -0.008246213   -0.000000000
      3        7           0.001689095    0.002745753   -0.000000000
      4        1          -0.000393085   -0.000470729   -0.000005208
      5        1           0.000135496   -0.000903545    0.000000000
      6        1          -0.000393085   -0.000470729    0.000005208
      7        1           0.001389901    0.001631401    0.000252059
      8        1           0.001389901    0.001631401   -0.000252059
      9        1          -0.000173073    0.000605283   -0.000458897
     10        1          -0.000173073    0.000605283    0.000458897
     11        1           0.000494208   -0.000467720   -0.000000000
 -------------------------------------------------------------------
 Cartesian Forces:  Max     0.009280219 RMS     0.002561276
 Leave Link  716 at Tue Feb 23 00:11:36 2021, MaxMem=   104857600 cpu:               0.6 elap:               0.0
 (Enter /sw/arch/RedHatEnterpriseServer7/EB_production/2019/software/Gaussian/g16.c01/l103.exe)

 GradGradGradGradGradGradGradGradGradGradGradGradGradGradGradGradGradGrad
 Berny optimization.
 Using GEDIIS/GDIIS optimizer.
 FormGI is forming the generalized inverse of G from B-inverse, IUseBI=4.
 Internal  Forces:  Max     0.004642619 RMS     0.001091302
 Search for a local minimum.
 Step number   2 out of a maximum of   56
 All quantities printed in internal units (Hartrees-Bohrs-Radians)
 RMS Force = .10913D-02 SwitMx=.10000D-02 MixMth= 1
 Mixed Optimization -- RFO/linear search
 Update second derivatives using D2CorX and points    1    2
 DE= -2.65D-03 DEPred=-2.37D-03 R= 1.12D+00
 TightC=F SS=  1.41D+00  RLast= 1.48D-01 DXNew= 5.0454D-01 4.4536D-01
 Trust test= 1.12D+00 RLast= 1.48D-01 DXMaxT set to 4.45D-01
 ITU=  1  0
 Use linear search instead of GDIIS.
     Eigenvalues ---    0.00230   0.00816   0.03878   0.04887   0.05336
     Eigenvalues ---    0.05667   0.05674   0.05772   0.07382   0.11984
     Eigenvalues ---    0.15672   0.16000   0.16000   0.16000   0.16000
     Eigenvalues ---    0.17049   0.21802   0.27005   0.34497   0.34569
     Eigenvalues ---    0.34599   0.34707   0.34888   0.35800   0.44153
     Eigenvalues ---    0.44198   0.44242
 RFO step:  Lambda=-2.91549565D-04 EMin= 2.30000000D-03
 Quartic linear search produced a step of  0.18916.
 Iteration  1 RMS(Cart)=  0.00795043 RMS(Int)=  0.00018462
 Iteration  2 RMS(Cart)=  0.00013918 RMS(Int)=  0.00015345
 Iteration  3 RMS(Cart)=  0.00000003 RMS(Int)=  0.00015345
 ITry= 1 IFail=0 DXMaxC= 2.22D-02 DCOld= 1.00D+10 DXMaxT= 4.45D-01 DXLimC= 3.00D+00 Rises=F
 ClnCor:  largest displacement from symmetrization is 1.97D-10 for atom     6.
 Variable       Old X    -DE/DX   Delta X   Delta X   Delta X     New X
                                 (Linear)    (Quad)   (Total)
    R1        2.89528  -0.00464  -0.00319  -0.01727  -0.02046   2.87481
    R2        2.07842  -0.00007   0.00319  -0.00238   0.00081   2.07924
    R3        2.07172   0.00080   0.00207   0.00136   0.00342   2.07514
    R4        2.07842  -0.00007   0.00319  -0.00238   0.00081   2.07924
    R5        2.84441   0.00390   0.01395   0.00345   0.01740   2.86181
    R6        2.07237  -0.00004   0.00162  -0.00123   0.00039   2.07276
    R7        2.07237  -0.00004   0.00162  -0.00123   0.00039   2.07276
    R8        1.94550   0.00072   0.00309  -0.00013   0.00296   1.94846
    R9        1.94550   0.00072   0.00309  -0.00013   0.00296   1.94846
   R10        1.94521   0.00049   0.00289  -0.00061   0.00228   1.94748
    A1        1.93929   0.00072   0.00302   0.00481   0.00776   1.94705
    A2        1.90370  -0.00095  -0.00339  -0.00776  -0.01112   1.89258
    A3        1.93929   0.00072   0.00302   0.00481   0.00776   1.94705
    A4        1.88972  -0.00011  -0.00147  -0.00268  -0.00411   1.88561
    A5        1.90080  -0.00030   0.00013   0.00311   0.00309   1.90389
    A6        1.88972  -0.00011  -0.00147  -0.00268  -0.00411   1.88561
    A7        1.93677   0.00044   0.00270  -0.00201   0.00083   1.93760
    A8        1.94102   0.00098   0.00391   0.01325   0.01706   1.95808
    A9        1.94102   0.00098   0.00391   0.01325   0.01706   1.95808
   A10        1.87489  -0.00141  -0.00536  -0.01682  -0.02225   1.85263
   A11        1.87489  -0.00141  -0.00536  -0.01682  -0.02225   1.85263
   A12        1.89253   0.00026  -0.00026   0.00737   0.00628   1.89881
   A13        1.94278   0.00041   0.00641  -0.00074   0.00555   1.94832
   A14        1.94278   0.00041   0.00641  -0.00074   0.00555   1.94832
   A15        1.95673  -0.00080   0.00726  -0.01125  -0.00411   1.95262
   A16        1.87108  -0.00032  -0.00696   0.00342  -0.00365   1.86743
   A17        1.87311   0.00015  -0.00696   0.00515  -0.00192   1.87119
   A18        1.87311   0.00015  -0.00696   0.00515  -0.00192   1.87119
    D1       -1.05968  -0.00030  -0.00209  -0.00529  -0.00743  -1.06712
    D2        1.02631  -0.00114  -0.00449  -0.01907  -0.02372   1.00259
    D3        3.13751   0.00053   0.00031   0.00848   0.00885  -3.13682
    D4        3.14159   0.00000   0.00000   0.00000   0.00000   3.14159
    D5       -1.05560  -0.00084  -0.00240  -0.01377  -0.01628  -1.07188
    D6        1.05560   0.00084   0.00240   0.01377   0.01628   1.07188
    D7        1.05968   0.00030   0.00209   0.00529   0.00743   1.06712
    D8       -3.13751  -0.00053  -0.00031  -0.00848  -0.00885   3.13682
    D9       -1.02631   0.00114   0.00449   0.01907   0.02372  -1.00259
   D10       -1.04318  -0.00007   0.00024  -0.00167  -0.00143  -1.04461
   D11        1.04318   0.00007  -0.00024   0.00167   0.00143   1.04461
   D12        3.14159   0.00000   0.00000   0.00000   0.00000   3.14159
   D13        3.11486  -0.00064  -0.00282  -0.00591  -0.00857   3.10629
   D14       -1.08196  -0.00049  -0.00329  -0.00257  -0.00571  -1.08766
   D15        1.01645  -0.00057  -0.00306  -0.00424  -0.00714   1.00931
   D16        1.08196   0.00049   0.00329   0.00257   0.00571   1.08766
   D17       -3.11486   0.00064   0.00282   0.00591   0.00857  -3.10629
   D18       -1.01645   0.00057   0.00306   0.00424   0.00714  -1.00931
         Item               Value     Threshold  Converged?
 Maximum Force            0.004643     0.000450     NO 
 RMS     Force            0.001091     0.000300     NO 
 Maximum Displacement     0.022191     0.001800     NO 
 RMS     Displacement     0.008009     0.001200     NO 
 Predicted change in Energy=-2.055535D-04
 Lowest energy point so far.  Saving SCF results.
 GradGradGradGradGradGradGradGradGradGradGradGradGradGradGradGradGradGrad

 Leave Link  103 at Tue Feb 23 00:11:36 2021, MaxMem=   104857600 cpu:               6.3 elap:               0.2
 (Enter /sw/arch/RedHatEnterpriseServer7/EB_production/2019/software/Gaussian/g16.c01/l202.exe)
                          Input orientation:                          
 ---------------------------------------------------------------------
 Center     Atomic      Atomic             Coordinates (Angstroms)
 Number     Number       Type             X           Y           Z
 ---------------------------------------------------------------------
      1          6           0       -0.026855   -0.015725    0.000000
      2          6           0        1.494404   -0.024767    0.000000
      3          7           0        2.045906    1.385645    0.000000
      4          1           0       -0.428202    0.480575    0.896232
      5          1           0       -0.380333   -1.055393    0.000000
      6          1           0       -0.428202    0.480575   -0.896232
      7          1           0        1.905759   -0.513167    0.891821
      8          1           0        1.905759   -0.513167   -0.891821
      9          1           0        1.735998    1.914931   -0.828820
     10          1           0        1.735998    1.914931    0.828820
     11          1           0        3.076427    1.395003    0.000000
 ---------------------------------------------------------------------
                    Distance matrix (angstroms):
                    1          2          3          4          5
     1  C    0.000000
     2  C    1.521285   0.000000
     3  N    2.502034   1.514403   0.000000
     4  H    1.100285   2.180600   2.782731   0.000000
     5  H    1.098115   2.139352   3.441700   1.778967   0.000000
     6  H    1.100285   2.180600   2.782731   1.792465   1.778967
     7  H    2.185816   1.096856   2.102492   2.536714   2.513080
     8  H    2.185816   1.096856   2.102492   3.103552   2.513080
     9  H    2.742631   2.123144   1.031082   3.117201   3.740137
    10  H    2.742631   2.123144   1.031082   2.597245   3.740137
    11  H    3.408888   2.125687   1.030564   3.731198   4.237173
                    6          7          8          9         10
     6  H    0.000000
     7  H    3.103552   0.000000
     8  H    2.536714   1.783642   0.000000
     9  H    2.597245   2.980785   2.434840   0.000000
    10  H    3.117201   2.434840   2.980785   1.657640   0.000000
    11  H    3.731198   2.409755   2.409755   1.659524   1.659524
                   11
    11  H    0.000000
 Stoichiometry    C2H8N(1+)
 Framework group  CS[SG(C2H2N),X(H6)]
 Deg. of freedom    16
 Full point group                 CS      NOp   2
 RotChk:  IX=0 Diff= 2.51D-02
 Largest Abelian subgroup         CS      NOp   2
 Largest concise Abelian subgroup CS      NOp   2
                         Standard orientation:                         
 ---------------------------------------------------------------------
 Center     Atomic      Atomic             Coordinates (Angstroms)
 Number     Number       Type             X           Y           Z
 ---------------------------------------------------------------------
      1          6           0        1.317633   -0.153956    0.000000
      2          6           0        0.000000    0.606407    0.000000
      3          7           0       -1.176977   -0.346557    0.000000
      4          1           0        1.420939   -0.783814    0.896232
      5          1           0        2.139118    0.574755    0.000000
      6          1           0        1.420939   -0.783814   -0.896232
      7          1           0       -0.115912    1.234350    0.891821
      8          1           0       -0.115912    1.234350   -0.891821
      9          1           0       -1.169456   -0.959852   -0.828820
     10          1           0       -1.169456   -0.959852    0.828820
     11          1           0       -2.077219    0.155067    0.000000
 ---------------------------------------------------------------------
 Rotational constants (GHZ):          29.4616287           8.2843660           7.3302685
 Leave Link  202 at Tue Feb 23 00:11:36 2021, MaxMem=   104857600 cpu:               0.4 elap:               0.0
 (Enter /sw/arch/RedHatEnterpriseServer7/EB_production/2019/software/Gaussian/g16.c01/l301.exe)
 Standard basis: TZVP (5D, 7F)
 Ernie: Thresh=  0.10000D-02 Tol=  0.10000D-05 Strict=F.
 There are    73 symmetry adapted cartesian basis functions of A'  symmetry.
 There are    35 symmetry adapted cartesian basis functions of A"  symmetry.
 There are    70 symmetry adapted basis functions of A'  symmetry.
 There are    35 symmetry adapted basis functions of A"  symmetry.
   105 basis functions,   169 primitive gaussians,   108 cartesian basis functions
    13 alpha electrons       13 beta electrons
       nuclear repulsion energy        89.5987817980 Hartrees.
 IExCor=  404 DFT=T Ex=B Corr=P86 ExCW=0 ScaHFX=  0.000000
 ScaDFX=  1.000000  1.000000  1.000000  1.000000 ScalE2=  1.000000  1.000000
 IRadAn=      5 IRanWt=     -1 IRanGd=            0 ICorTp=0 IEmpDi=131
 NAtoms=   11 NActive=   11 NUniq=    8 SFac= 1.89D+00 NAtFMM=   60 NAOKFM=F Big=F
 Integral buffers will be    131072 words long.
 Raffenetti 2 integral format.
[...]
 ! D6    D(5,1,2,8)             61.4122                                         !
 ! D7    D(6,1,2,3)             61.2064                                         !
 ! D8    D(6,1,2,7)            179.7942                                         !
 ! D9    D(6,1,2,8)            -57.3815                                         !
 ! D10   D(1,2,3,9)            -59.9101                                         !
 ! D11   D(1,2,3,10)            59.9101                                         !
 ! D12   D(1,2,3,11)           180.0                                            !
 ! D13   D(7,2,3,9)            177.8422                                         !
 ! D14   D(7,2,3,10)           -62.3377                                         !
 ! D15   D(7,2,3,11)            57.7522                                         !
 ! D16   D(8,2,3,9)             62.3377                                         !
 ! D17   D(8,2,3,10)          -177.8422                                         !
 ! D18   D(8,2,3,11)           -57.7522                                         !
 --------------------------------------------------------------------------------
                          Input orientation:                          
 ---------------------------------------------------------------------
 Center     Atomic      Atomic             Coordinates (Angstroms)
 Number     Number       Type             X           Y           Z
 ---------------------------------------------------------------------
      1          6           0       -0.027050   -0.016911    0.000000
      2          6           0        1.492390   -0.024192    0.000000
      3          7           0        2.048087    1.390187    0.000000
      4          1           0       -0.430364    0.477256    0.895595
      5          1           0       -0.381604   -1.056617    0.000000
      6          1           0       -0.430364    0.477256   -0.895595
      7          1           0        1.904998   -0.511945    0.891416
      8          1           0        1.904998   -0.511945   -0.891416
      9          1           0        1.738916    1.917389   -0.829322
     10          1           0        1.738916    1.917389    0.829322
     11          1           0        3.077738    1.391572    0.000000
 ---------------------------------------------------------------------
                    Distance matrix (angstroms):
                    1          2          3          4          5
     1  C    0.000000
     2  C    1.519457   0.000000
     3  N    2.507213   1.519627   0.000000
     4  H    1.099525   2.179570   2.788952   0.000000
     5  H    1.098498   2.139569   3.448224   1.776861   0.000000
     6  H    1.099525   2.179570   2.788952   1.791191   1.776861
     7  H    2.184603   1.096709   2.105517   2.536228   2.513929
     8  H    2.184603   1.096709   2.105517   3.102555   2.513929
     9  H    2.747349   2.125627   1.030196   3.123315   3.745543
    10  H    2.747349   2.125627   1.030196   2.604640   3.745543
    11  H    3.409330   2.125492   1.029652   3.734280   4.238004
                    6          7          8          9         10
     6  H    0.000000
     7  H    3.102555   0.000000
     8  H    2.536228   1.782831   0.000000
     9  H    2.604640   2.981642   2.435797   0.000000
    10  H    3.123315   2.435797   2.981642   1.658643   0.000000
    11  H    3.734280   2.406931   2.406931   1.660332   1.660332
                   11
    11  H    0.000000
 Stoichiometry    C2H8N(1+)
 Framework group  CS[SG(C2H2N),X(H6)]
 Deg. of freedom    16
 Full point group                 CS      NOp   2
 Largest Abelian subgroup         CS      NOp   2
 Largest concise Abelian subgroup CS      NOp   2
                         Standard orientation:                         
 ---------------------------------------------------------------------
 Center     Atomic      Atomic             Coordinates (Angstroms)
 Number     Number       Type             X           Y           Z
 ---------------------------------------------------------------------
      1          6           0        1.319388   -0.147979    0.000000
      2          6           0       -0.000000    0.605656    0.000000
      3          7           0       -1.179467   -0.352532    0.000000
      4          1           0        1.427509   -0.776607    0.895595
      5          1           0        2.139448    0.582910    0.000000
      6          1           0        1.427509   -0.776607   -0.895595
      7          1           0       -0.119367    1.233271    0.891416
      8          1           0       -0.119367    1.233271   -0.891416
      9          1           0       -1.169563   -0.963622   -0.829322
     10          1           0       -1.169563   -0.963622    0.829322
     11          1           0       -2.076660    0.152668    0.000000
 ---------------------------------------------------------------------
 Rotational constants (GHZ):          29.5007919           8.2550656           7.3092859
 Standard basis: TZVP (5D, 7F)
 There are    73 symmetry adapted cartesian basis functions of A'  symmetry.
 There are    35 symmetry adapted cartesian basis functions of A"  symmetry.
 There are    70 symmetry adapted basis functions of A'  symmetry.
 There are    35 symmetry adapted basis functions of A"  symmetry.
   105 basis functions,   169 primitive gaussians,   108 cartesian basis functions
    13 alpha electrons       13 beta electrons
       nuclear repulsion energy        89.5388599320 Hartrees.
 NAtoms=   11 NActive=   11 NUniq=    8 SFac= 1.89D+00 NAtFMM=   60 NAOKFM=F Big=F
 Integral buffers will be    131072 words long.
 Raffenetti 2 integral format.
 Two-electron integral symmetry is turned on.
 Warning! Using old PCM defaults because the COSMOthermo output has been requested.
 These settings can be overridden by following keywords.
 ------------------------------------------------------------------------------
 Polarizable Continuum Model (PCM)
 =================================
 Model                : C-PCM.
 Atomic radii         : Klamt.
 XCosmo               : -1.000 (infinite dielectric limit)
 Polarization charges : Electronic and nuclear charges.
 Charge compensation  : Type 3 (Electronic density weighted correction).
 Solution method      : On-the-fly selection.
 Cavity type          : VdW (van der Waals Surface) (Alpha=1.000).
 Cavity algorithm     : GePol (No added spheres)
                        Default sphere list used, NSphG=   11.
                        Tesserae with average area of 0.200 Ang**2.
                        Smoothing algorithm: None.
                        Polarization charges: point-like.
                        Self-potential: constant (ISelfS= 1).
                        Self-field    : global E.n sum rule (ISelfD= 3).
 Solvent              : Water, Eps=  78.355300 Eps(inf)=   1.777849
 ------------------------------------------------------------------------------
 Spheres list:
 ISph  on   Nord     Re0    Alpha      Xe            Ye            Ze
    1   C      1    2.0000  1.000      1.319388     -0.147979      0.000000
    2   C      2    2.0000  1.000      0.000000      0.605656      0.000000
    3   N      3    1.8300  1.000     -1.179467     -0.352532      0.000000
    4   H      4    1.3000  1.000      1.427509     -0.776607      0.895595
    5   H      5    1.3000  1.000      2.139448      0.582910      0.000000
    6   H      6    1.3000  1.000      1.427509     -0.776607     -0.895595
    7   H      7    1.3000  1.000     -0.119367      1.233271      0.891416
    8   H      8    1.3000  1.000     -0.119367      1.233271     -0.891416
    9   H      9    1.3000  1.000     -1.169563     -0.963622     -0.829322
   10   H     10    1.3000  1.000     -1.169563     -0.963622      0.829322
   11   H     11    1.3000  1.000     -2.076660      0.152668      0.000000
 ------------------------------------------------------------------------------
 Using symmetry in molecular cavity generation.
 One-electron integrals computed using PRISM.
 PrsmSu:  requested number of processors reduced to:  30 ShMem   1 Linda.
 NBasis=   105 RedAO= T EigKep=  5.32D-04  NBF=    70    35
 NBsUse=   105 1.00D-06 EigRej= -1.00D+00 NBFU=    70    35
 Initial guess from the checkpoint file:  "QUSNBJAOOMFDIB-UHFFFAOYSA-O.chk"
 B after Tr=     0.000000   -0.000000   -0.000000
         Rot=    1.000000   -0.000000   -0.000000   -0.000000 Ang=   0.00 deg.
 Initial guess orbital symmetries:
       Occupied  (A') (A') (A') (A') (A') (A') (A") (A') (A') (A")
                 (A') (A') (A")
       Virtual   (A') (A') (A') (A") (A') (A') (A") (A') (A") (A')
                 (A') (A') (A") (A') (A") (A") (A') (A') (A') (A")
                 (A') (A') (A') (A") (A') (A') (A") (A') (A') (A')
                 (A') (A") (A') (A") (A') (A") (A') (A") (A') (A')
                 (A") (A') (A") (A") (A') (A') (A") (A') (A') (A")
                 (A") (A') (A") (A") (A') (A') (A') (A") (A') (A')
                 (A') (A') (A") (A') (A') (A") (A') (A') (A") (A")
                 (A') (A') (A") (A') (A') (A") (A') (A") (A') (A')
                 (A') (A') (A') (A") (A") (A') (A') (A") (A') (A')
                 (A') (A')
 Keep J ints in memory in symmetry-blocked form, NReq=45423652.
 Requested convergence on RMS density matrix=1.00D-08 within 128 cycles.
 Requested convergence on MAX density matrix=1.00D-06.
 Requested convergence on             energy=1.00D-06.
 No special actions if energy rises.
 Inv3:  Mode=1 IEnd=     2056752.
 Iteration    1 A*A^-1 deviation from unit magnitude is 3.11D-15 for    598.
 Iteration    1 A*A^-1 deviation from orthogonality  is 1.59D-15 for    747     30.
 Iteration    1 A^-1*A deviation from unit magnitude is 3.00D-15 for    598.
 Iteration    1 A^-1*A deviation from orthogonality  is 4.44D-15 for    763     98.
 Error on nuclear    polarization charges =  0.00612
 Error on electronic polarization charges = -0.02350
 SCF Done:  E(RB-P86) =  -135.695012217     A.U. after    9 cycles
            NFock=  9  Conv=0.44D-08     -V/T= 2.0064
 --------------------------------------------------------------------
 Variational C-PCM results
 =========================
 <psi(f)|   H    |psi(f)>                     (a.u.) =    -135.577979
 <psi(f)|H+V(f)/2|psi(f)>                     (a.u.) =    -135.695012
 Total free energy in solution:
 - with all non electrostatic terms           (a.u.) =    -135.688913
 --------------------------------------------------------------------
 (Polarized solute)-Solvent               (kcal/mol) =     -73.44
 --------------------------------------------------------------------
 Cavitation energy                        (kcal/mol) =      12.84
 Dispersion energy                        (kcal/mol) =      -9.99
 Repulsion energy                         (kcal/mol) =       0.97
 Total non electrostatic                  (kcal/mol) =       3.83
 --------------------------------------------------------------------
 Partition over spheres:
 Sphere  on Atom  Surface  Charge   GEl     GCav    GDR
    1      C1      18.66  -0.021   -1.51    2.19   -1.26
    2      C2      12.68  -0.095   -6.52    1.49   -0.59
    3      N3       9.37  -0.171  -13.94    1.14   -0.58
    4      H4       6.53  -0.036   -1.92    0.92   -0.71
    5      H5       6.52  -0.038   -1.72    0.92   -0.74
    6      H6       6.53  -0.036   -1.92    0.92   -0.71
    7      H7       6.49  -0.055   -3.30    0.92   -0.83
    8      H8       6.49  -0.055   -3.30    0.92   -0.83
    9      H9       8.08  -0.165  -13.14    1.14   -0.90
   10      H10      8.08  -0.165  -13.14    1.14   -0.90
   11      H11      8.14  -0.163  -13.04    1.15   -0.98
 --------------------------------------------------------------------
 - cavitation energy not included in the total energy.
 - dispersion energy not included in the total energy.
 - repulsion  energy not included in the total energy.
 After PCM corrections, the energy is  -135.695012217     a.u.
 --------------------------------------------------------------------
 Writing COSMO formatted file "QUSNBJAOOMFDIB-UHFFFAOYSA-O.cosmo"
 Recomputed dielectric energy= -0.115363 old= -0.117033 diff= 1.67D-03

 **********************************************************************

            Population analysis using the SCF Density.

 **********************************************************************

 Orbital symmetries:
       Occupied  (A') (A') (A') (A') (A') (A') (A") (A') (A') (A")
                 (A') (A') (A")
       Virtual   (A') (A') (A') (A") (A') (A') (A") (A') (A") (A')
                 (A') (A') (A") (A') (A") (A") (A') (A') (A') (A")
                 (A') (A') (A') (A") (A') (A') (A") (A') (A') (A')
                 (A') (A") (A') (A") (A') (A") (A') (A") (A') (A')
                 (A") (A') (A") (A") (A') (A') (A") (A') (A') (A")
                 (A") (A') (A") (A") (A') (A') (A') (A") (A') (A')
                 (A') (A') (A") (A') (A') (A") (A') (A') (A") (A")
                 (A') (A') (A") (A') (A') (A") (A') (A") (A') (A')
                 (A') (A') (A') (A") (A") (A') (A') (A") (A') (A')
                 (A') (A')
 The electronic state is 1-A'.
 Alpha  occ. eigenvalues --  -14.10827  -9.95677  -9.89962  -0.90922  -0.70260
 Alpha  occ. eigenvalues --   -0.58613  -0.52014  -0.51239  -0.44520  -0.40230
 Alpha  occ. eigenvalues --   -0.35582  -0.34369  -0.32299
 Alpha virt. eigenvalues --    0.00239   0.04453   0.05954   0.06082   0.08135
 Alpha virt. eigenvalues --    0.09406   0.10121   0.10556   0.11974   0.15599
 Alpha virt. eigenvalues --    0.19186   0.21043   0.21338   0.22913   0.25822
 Alpha virt. eigenvalues --    0.31678   0.33612   0.35624   0.37612   0.40146
 Alpha virt. eigenvalues --    0.40286   0.40846   0.42174   0.44892   0.45406
 Alpha virt. eigenvalues --    0.46613   0.46872   0.52911   0.55960   0.67775
 Alpha virt. eigenvalues --    1.00375   1.01483   1.16378   1.18143   1.20187
 Alpha virt. eigenvalues --    1.22051   1.23889   1.27894   1.28233   1.32111
 Alpha virt. eigenvalues --    1.34401   1.45087   1.46161   1.46855   1.50843
 Alpha virt. eigenvalues --    1.52941   1.55273   1.60478   1.64040   1.66144
 Alpha virt. eigenvalues --    1.71636   1.71787   1.73886   1.76798   1.78351
 Alpha virt. eigenvalues --    1.80997   1.83294   1.84853   1.89446   1.94279
 Alpha virt. eigenvalues --    2.07587   2.11314   2.17814   2.21440   2.24001
 Alpha virt. eigenvalues --    2.28698   2.32427   2.38179   2.45014   2.49034
 Alpha virt. eigenvalues --    2.50989   2.53158   2.53541   2.54943   2.59697
 Alpha virt. eigenvalues --    2.60190   2.63086   2.74960   2.74990   2.77477
 Alpha virt. eigenvalues --    2.94969   3.05815   3.22700   3.22757   3.26878
 Alpha virt. eigenvalues --    3.26977   3.58559   3.76727   3.78019  21.63107
 Alpha virt. eigenvalues --   21.74679  31.29436
          Condensed to atoms (all electrons):
               1          2          3          4          5          6
     1  C    5.012851   0.302225  -0.051970   0.403281   0.402049   0.403281
     2  C    0.302225   5.009061   0.223363  -0.034149  -0.036313  -0.034149
     3  N   -0.051970   0.223363   6.091913  -0.003233   0.006592  -0.003233
     4  H    0.403281  -0.034149  -0.003233   0.527060  -0.020996  -0.028353
     5  H    0.402049  -0.036313   0.006592  -0.020996   0.503501  -0.020996
     6  H    0.403281  -0.034149  -0.003233  -0.028353  -0.020996   0.527060
     7  H   -0.034177   0.407892  -0.029925  -0.006749  -0.001677   0.006412
     8  H   -0.034177   0.407892  -0.029925   0.006412  -0.001677  -0.006749
     9  H   -0.003690  -0.018993   0.352749  -0.001023   0.000149   0.004064
    10  H   -0.003690  -0.018993   0.352749   0.004064   0.000149  -0.001023
    11  H    0.006653  -0.017830   0.349666  -0.000174  -0.000290  -0.000174
               7          8          9         10         11
     1  C   -0.034177  -0.034177  -0.003690  -0.003690   0.006653
     2  C    0.407892   0.407892  -0.018993  -0.018993  -0.017830
     3  N   -0.029925  -0.029925   0.352749   0.352749   0.349666
     4  H   -0.006749   0.006412  -0.001023   0.004064  -0.000174
     5  H   -0.001677  -0.001677   0.000149   0.000149  -0.000290
     6  H    0.006412  -0.006749   0.004064  -0.001023  -0.000174
     7  H    0.497271  -0.025334   0.004862  -0.005327  -0.003182
     8  H   -0.025334   0.497271  -0.005327   0.004862  -0.003182
     9  H    0.004862  -0.005327   0.363399  -0.014203  -0.011483
    10  H   -0.005327   0.004862  -0.014203   0.363399  -0.011483
    11  H   -0.003182  -0.003182  -0.011483  -0.011483   0.356181
 Mulliken charges:
               1
     1  C   -0.402637
     2  C   -0.190006
     3  N   -0.258745
     4  H    0.153858
     5  H    0.169508
     6  H    0.153858
     7  H    0.189935
     8  H    0.189935
     9  H    0.329497
    10  H    0.329497
    11  H    0.335299
 Sum of Mulliken charges =   1.00000
 Mulliken charges with hydrogens summed into heavy atoms:
               1
     1  C    0.074588
     2  C    0.189864
     3  N    0.735548
 Electronic spatial extent (au):  <R**2>=            210.5846
 Charge=              1.0000 electrons
 Dipole moment (field-independent basis, Debye):
    X=             -4.8522    Y=             -1.3231    Z=             -0.0000  Tot=              5.0293
 Quadrupole moment (field-independent basis, Debye-Ang):
   XX=             -9.7857   YY=            -15.9296   ZZ=            -16.6384
   XY=              2.2566   XZ=              0.0000   YZ=             -0.0000
 Traceless Quadrupole moment (field-independent basis, Debye-Ang):
   XX=              4.3322   YY=             -1.8117   ZZ=             -2.5205
   XY=              2.2566   XZ=              0.0000   YZ=             -0.0000
 Octapole moment (field-independent basis, Debye-Ang**2):
  XXX=            -22.4478  YYY=             -3.2792  ZZZ=             -0.0000  XYY=             -5.2386
  XXY=             -1.7206  XXZ=             -0.0000  XZZ=             -4.9859  YZZ=             -2.6670
  YYZ=             -0.0000  XYZ=             -0.0000
 Hexadecapole moment (field-independent basis, Debye-Ang**3):
 XXXX=           -135.1137 YYYY=            -55.4870 ZZZZ=            -32.6558 XXXY=              0.2517
 XXXZ=             -0.0000 YYYX=              0.7750 YYYZ=             -0.0000 ZZZX=              0.0000
 ZZZY=             -0.0000 XXYY=            -33.6074 XXZZ=            -31.7565 YYZZ=            -10.7120
 XXYZ=              0.0000 YYXZ=              0.0000 ZZXY=              0.5583
 N-N= 8.953885993197D+01 E-N=-4.868512948727D+02  KE= 1.348309047601D+02
 Symmetry A'   KE= 1.278593644517D+02
 Symmetry A"   KE= 6.971540308352D+00
 Unable to Open any file for archive entry.
 1\1\GINC-TCN1659\SP\RBP86\TZVP\C2H8N1(1+)\ELENAA\23-Feb-2021\0\\# BP86
 /TZVP SCRF=COSMORS geom=CHECKPOINT guess=CHECKPOINT\\COSMO-file for #Q
 USNBJAOOMFDIB-UHFFFAOYSA-O\\1,1\C,0,-0.0270496819,-0.0169106682,0.\C,0
 ,1.4923899497,-0.0241921147,0.\N,0,2.0480871247,1.3901867748,0.\H,0,-0
 .4303643224,0.4772562197,0.8955954345\H,0,-0.3816040116,-1.0566166032,
 0.\H,0,-0.4303643224,0.4772562197,-0.8955954345\H,0,1.9049978503,-0.51
 19452415,0.8914156039\H,0,1.9049978503,-0.5119452415,-0.8914156039\H,0
 ,1.738915704,1.9173894038,-0.8293215959\H,0,1.738915704,1.9173894038,0
 .8293215959\H,0,3.0777381552,1.3915718472,0.\\Version=ES64L-G16RevC.01
 \State=1-A'\HF=-135.6950122\RMSD=4.391e-09\Dipole=1.4061195,1.3921305,
 0.\Quadrupole=0.6790982,1.1948418,-1.87394,2.8221244,0.,0.\PG=CS [SG(C
 2H2N1),X(H6)]\\@
 The archive entry for this job was punched.


 YOU CAN WIPE THE SLATE CLEAN, BUT YOU'LL STILL
 HAVE TO EAT A LITTLE CHALK DUST.
 Job cpu time:       0 days  0 hours  1 minutes 10.4 seconds.
 Elapsed time:       0 days  0 hours  0 minutes  2.6 seconds.
 File lengths (MBytes):  RWF=     17 Int=      0 D2E=      0 Chk=      4 Scr=      1
 Normal termination of Gaussian 16 at Tue Feb 23 00:11:49 2021.
