 Entering Gaussian System, Link 0=g16
 Input=QWBBPBRQALCEIZ-UHFFFAOYSA-N.gjf
 Output=QWBBPBRQALCEIZ-UHFFFAOYSA-N.log
 Initial command:
 /sw/arch/RedHatEnterpriseServer7/EB_production/2019/software/Gaussian/g16.c01/l1.exe "/scratch-local/elenaa.9715269/Gau-32031.inp" -scrdir="/scratch-local/elenaa.9715269/"
 Entering Link 1 = /sw/arch/RedHatEnterpriseServer7/EB_production/2019/software/Gaussian/g16.c01/l1.exe PID=     32032.
  
 Copyright (c) 1988-2019, Gaussian, Inc.  All Rights Reserved.
  
 This is part of the Gaussian(R) 16 program.  It is based on
 the Gaussian(R) 09 system (copyright 2009, Gaussian, Inc.),
 the Gaussian(R) 03 system (copyright 2003, Gaussian, Inc.),
 the Gaussian(R) 98 system (copyright 1998, Gaussian, Inc.),
 the Gaussian(R) 94 system (copyright 1995, Gaussian, Inc.),
 the Gaussian 92(TM) system (copyright 1992, Gaussian, Inc.),
 the Gaussian 90(TM) system (copyright 1990, Gaussian, Inc.),
 the Gaussian 88(TM) system (copyright 1988, Gaussian, Inc.),
 the Gaussian 86(TM) system (copyright 1986, Carnegie Mellon
 University), and the Gaussian 82(TM) system (copyright 1983,
 Carnegie Mellon University). Gaussian is a federally registered
 trademark of Gaussian, Inc.
  
 This software contains proprietary and confidential information,
 including trade secrets, belonging to Gaussian, Inc.
  
 This software is provided under written license and may be
 used, copied, transmitted, or stored only in accord with that
 written license.
  
 The following legend is applicable only to US Government
 contracts under FAR:
  
                    RESTRICTED RIGHTS LEGEND
  
 Use, reproduction and disclosure by the US Government is
 subject to restrictions as set forth in subparagraphs (a)
 and (c) of the Commercial Computer Software - Restricted
 Rights clause in FAR 52.227-19.
  
 Gaussian, Inc.
 340 Quinnipiac St., Bldg. 40, Wallingford CT 06492
  
  
 ---------------------------------------------------------------
 Warning -- This program may not be used in any manner that
 competes with the business of Gaussian, Inc. or will provide
 assistance to any competitor of Gaussian, Inc.  The licensee
 of this program is prohibited from giving any competitor of
 Gaussian, Inc. access to this program.  By using this program,
 the user acknowledges that Gaussian, Inc. is engaged in the
 business of creating and licensing software in the field of
 computational chemistry and represents and warrants to the
 licensee that it is not a competitor of Gaussian, Inc. and that
 it will not use this program in any manner prohibited above.
 ---------------------------------------------------------------
  

 Cite this work as:
 Gaussian 16, Revision C.01,
 M. J. Frisch, G. W. Trucks, H. B. Schlegel, G. E. Scuseria, 
 M. A. Robb, J. R. Cheeseman, G. Scalmani, V. Barone, 
 G. A. Petersson, H. Nakatsuji, X. Li, M. Caricato, A. V. Marenich, 
 J. Bloino, B. G. Janesko, R. Gomperts, B. Mennucci, H. P. Hratchian, 
 J. V. Ortiz, A. F. Izmaylov, J. L. Sonnenberg, D. Williams-Young, 
 F. Ding, F. Lipparini, F. Egidi, J. Goings, B. Peng, A. Petrone, 
 T. Henderson, D. Ranasinghe, V. G. Zakrzewski, J. Gao, N. Rega, 
 G. Zheng, W. Liang, M. Hada, M. Ehara, K. Toyota, R. Fukuda, 
 J. Hasegawa, M. Ishida, T. Nakajima, Y. Honda, O. Kitao, H. Nakai, 
 T. Vreven, K. Throssell, J. A. Montgomery, Jr., J. E. Peralta, 
 F. Ogliaro, M. J. Bearpark, J. J. Heyd, E. N. Brothers, K. N. Kudin, 
 V. N. Staroverov, T. A. Keith, R. Kobayashi, J. Normand, 
 K. Raghavachari, A. P. Rendell, J. C. Burant, S. S. Iyengar, 
 J. Tomasi, M. Cossi, J. M. Millam, M. Klene, C. Adamo, R. Cammi, 
 J. W. Ochterski, R. L. Martin, K. Morokuma, O. Farkas, 
 J. B. Foresman, and D. J. Fox, Gaussian, Inc., Wallingford CT, 2019.
 
 ******************************************
 Gaussian 16:  ES64L-G16RevC.01  3-Jul-2019
                22-Feb-2021 
 ******************************************
 %chk=QWBBPBRQALCEIZ-UHFFFAOYSA-N.chk
 %NProcShared=32
 Will use up to   32 processors via shared memory.
 -------------------------------------------------------------
 #P BP86/TZVP EmpiricalDispersion=GD3 SCRF=(Solvent=Water) Opt
 -------------------------------------------------------------
 1/18=20,19=15,26=3,38=1/1,3;
 2/9=110,12=2,17=6,18=5,40=1/2;
 3/5=19,7=101,11=2,25=1,30=1,70=2201,71=1,72=1,74=404,124=31/1,2,3;
 4//1;
 5/5=2,38=5,53=1/2;
 6/7=2,8=2,9=2,10=2,28=1/1;
 7//1,2,3,16;
 1/18=20,19=15,26=3/3(2);
 2/9=110/2;
 99//99;
 2/9=110/2;
 3/5=19,7=101,11=2,25=1,30=1,70=2205,71=1,72=1,74=404,124=31/1,2,3;
 4/5=5,16=3,69=1/1;
 5/5=2,38=5,53=1/2;
 7//1,2,3,16;
 1/18=20,19=15,26=3/3(-5);
 2/9=110/2;
 6/7=2,8=2,9=2,10=2,19=2,28=1/1;
 99/9=1/99;
 Leave Link    1 at Mon Feb 22 21:18:30 2021, MaxMem=           0 cpu:               1.2 elap:               0.1
 (Enter /sw/arch/RedHatEnterpriseServer7/EB_production/2019/software/Gaussian/g16.c01/l101.exe)
 -------------------------------------
 Particle #QWBBPBRQALCEIZ-UHFFFAOYSA-N
 -------------------------------------
 Symbolic Z-matrix:
 Charge =  0 Multiplicity = 1
 C                    -0.97895   2.54668  -0.02611 
 C                    -0.89583   1.12774  -0.4754 
 C                    -1.66274   0.71976  -1.59531 
 C                    -1.62003  -0.6025   -2.0636 
 C                    -0.79942  -1.54156  -1.42526 
 C                    -0.02381  -1.16142  -0.31654 
 O                     0.76002  -2.1222    0.23248 
 C                    -0.06708   0.16847   0.18469 
 C                     0.74207   0.55053   1.37685 
 H                     0.0138    3.00049  -0.03887 
 H                    -1.38078   2.59613   0.98716 
 H                    -1.62628   3.1513   -0.66512 
 H                    -2.2653    1.38425  -2.08711 
 H                    -2.18451  -0.8798   -2.86984 
 H                    -0.76716  -2.50275  -1.7724 
 H                     0.59382  -2.92124  -0.31 
 H                     0.09462   0.96462   2.15148 
 H                     1.27416  -0.29131   1.82079 
 H                     1.48262   1.30015   1.09347 
 
 ITRead=  0  0  0  0  0  0  0  0  0  0  0  0  0  0  0  0  0  0  0
 MicOpt= -1 -1 -1 -1 -1 -1 -1 -1 -1 -1 -1 -1 -1 -1 -1 -1 -1 -1 -1
 NAtoms=     19 NQM=       19 NQMF=       0 NMMI=      0 NMMIF=      0
                NMic=       0 NMicF=      0.
                    Isotopes and Nuclear Properties:
 (Nuclear quadrupole moments (NQMom) in fm**2, nuclear magnetic moments (NMagM)
  in nuclear magnetons)

  Atom         1           2           3           4           5           6           7           8           9          10
 IAtWgt=          12          12          12          12          12          12          16          12          12           1
 AtmWgt=  12.0000000  12.0000000  12.0000000  12.0000000  12.0000000  12.0000000  15.9949146  12.0000000  12.0000000   1.0078250
 NucSpn=           0           0           0           0           0           0           0           0           0           1
 AtZEff=  -0.0000000  -0.0000000  -0.0000000  -0.0000000  -0.0000000  -0.0000000  -0.0000000  -0.0000000  -0.0000000  -0.0000000
 NQMom=    0.0000000   0.0000000   0.0000000   0.0000000   0.0000000   0.0000000   0.0000000   0.0000000   0.0000000   0.0000000
 NMagM=    0.0000000   0.0000000   0.0000000   0.0000000   0.0000000   0.0000000   0.0000000   0.0000000   0.0000000   2.7928460
 AtZNuc=   6.0000000   6.0000000   6.0000000   6.0000000   6.0000000   6.0000000   8.0000000   6.0000000   6.0000000   1.0000000

  Atom        11          12          13          14          15          16          17          18          19
 IAtWgt=           1           1           1           1           1           1           1           1           1
 AtmWgt=   1.0078250   1.0078250   1.0078250   1.0078250   1.0078250   1.0078250   1.0078250   1.0078250   1.0078250
 NucSpn=           1           1           1           1           1           1           1           1           1
 AtZEff=  -0.0000000  -0.0000000  -0.0000000  -0.0000000  -0.0000000  -0.0000000  -0.0000000  -0.0000000  -0.0000000
 NQMom=    0.0000000   0.0000000   0.0000000   0.0000000   0.0000000   0.0000000   0.0000000   0.0000000   0.0000000
 NMagM=    2.7928460   2.7928460   2.7928460   2.7928460   2.7928460   2.7928460   2.7928460   2.7928460   2.7928460
 AtZNuc=   1.0000000   1.0000000   1.0000000   1.0000000   1.0000000   1.0000000   1.0000000   1.0000000   1.0000000
 Leave Link  101 at Mon Feb 22 21:18:30 2021, MaxMem=   104857600 cpu:               3.1 elap:               0.1
 (Enter /sw/arch/RedHatEnterpriseServer7/EB_production/2019/software/Gaussian/g16.c01/l103.exe)

 GradGradGradGradGradGradGradGradGradGradGradGradGradGradGradGradGradGrad
 Berny optimization.
 Initialization pass.
                           ----------------------------
                           !    Initial Parameters    !
                           ! (Angstroms and Degrees)  !
 --------------------------                            --------------------------
 ! Name  Definition              Value          Derivative Info.                !
 --------------------------------------------------------------------------------
 ! R1    R(1,2)                  1.4907         estimate D2E/DX2                !
 ! R2    R(1,10)                 1.0916         estimate D2E/DX2                !
 ! R3    R(1,11)                 1.0912         estimate D2E/DX2                !
 ! R4    R(1,12)                 1.0922         estimate D2E/DX2                !
 ! R5    R(2,3)                  1.4173         estimate D2E/DX2                !
 ! R6    R(2,8)                  1.4292         estimate D2E/DX2                !
 ! R7    R(3,4)                  1.4034         estimate D2E/DX2                !
 ! R8    R(3,13)                 1.023          estimate D2E/DX2                !
 ! R9    R(4,5)                  1.401          estimate D2E/DX2                !
 ! R10   R(4,14)                 1.0225         estimate D2E/DX2                !
 ! R11   R(5,6)                  1.4055         estimate D2E/DX2                !
 ! R12   R(5,15)                 1.0225         estimate D2E/DX2                !
 ! R13   R(6,7)                  1.3561         estimate D2E/DX2                !
 ! R14   R(6,8)                  1.4219         estimate D2E/DX2                !
 ! R15   R(7,16)                 0.98           estimate D2E/DX2                !
 ! R16   R(8,9)                  1.4906         estimate D2E/DX2                !
 ! R17   R(9,17)                 1.0912         estimate D2E/DX2                !
 ! R18   R(9,18)                 1.0904         estimate D2E/DX2                !
 ! R19   R(9,19)                 1.0912         estimate D2E/DX2                !
 ! A1    A(2,1,10)             109.9668         estimate D2E/DX2                !
 ! A2    A(2,1,11)             110.0936         estimate D2E/DX2                !
 ! A3    A(2,1,12)             112.5593         estimate D2E/DX2                !
 ! A4    A(10,1,11)            109.0818         estimate D2E/DX2                !
 ! A5    A(10,1,12)            107.5791         estimate D2E/DX2                !
 ! A6    A(11,1,12)            107.4546         estimate D2E/DX2                !
 ! A7    A(1,2,3)              118.8147         estimate D2E/DX2                !
 ! A8    A(1,2,8)              122.1407         estimate D2E/DX2                !
 ! A9    A(3,2,8)              119.0445         estimate D2E/DX2                !
 ! A10   A(2,3,4)              121.2257         estimate D2E/DX2                !
 ! A11   A(2,3,13)             120.7712         estimate D2E/DX2                !
 ! A12   A(4,3,13)             118.003          estimate D2E/DX2                !
 ! A13   A(3,4,5)              119.8236         estimate D2E/DX2                !
 ! A14   A(3,4,14)             120.1204         estimate D2E/DX2                !
 ! A15   A(5,4,14)             120.0559         estimate D2E/DX2                !
 ! A16   A(4,5,6)              120.0918         estimate D2E/DX2                !
 ! A17   A(4,5,15)             119.5978         estimate D2E/DX2                !
 ! A18   A(6,5,15)             120.3102         estimate D2E/DX2                !
 ! A19   A(5,6,7)              116.5341         estimate D2E/DX2                !
 ! A20   A(5,6,8)              120.9485         estimate D2E/DX2                !
 ! A21   A(7,6,8)              122.5166         estimate D2E/DX2                !
 ! A22   A(6,7,16)             104.8057         estimate D2E/DX2                !
 ! A23   A(2,8,6)              118.8549         estimate D2E/DX2                !
 ! A24   A(2,8,9)              120.8041         estimate D2E/DX2                !
 ! A25   A(6,8,9)              120.3409         estimate D2E/DX2                !
 ! A26   A(8,9,17)             110.0559         estimate D2E/DX2                !
 ! A27   A(8,9,18)             113.1185         estimate D2E/DX2                !
 ! A28   A(8,9,19)             109.681          estimate D2E/DX2                !
 ! A29   A(17,9,18)            107.0677         estimate D2E/DX2                !
 ! A30   A(17,9,19)            109.0471         estimate D2E/DX2                !
 ! A31   A(18,9,19)            107.7553         estimate D2E/DX2                !
 ! D1    D(10,1,2,3)          -122.1259         estimate D2E/DX2                !
 ! D2    D(10,1,2,8)            57.7584         estimate D2E/DX2                !
 ! D3    D(11,1,2,3)           117.6572         estimate D2E/DX2                !
 ! D4    D(11,1,2,8)           -62.4585         estimate D2E/DX2                !
 ! D5    D(12,1,2,3)            -2.1991         estimate D2E/DX2                !
 ! D6    D(12,1,2,8)           177.6853         estimate D2E/DX2                !
 ! D7    D(1,2,3,4)            179.824          estimate D2E/DX2                !
 ! D8    D(1,2,3,13)            -0.1549         estimate D2E/DX2                !
 ! D9    D(8,2,3,4)             -0.064          estimate D2E/DX2                !
 ! D10   D(8,2,3,13)           179.9571         estimate D2E/DX2                !
 ! D11   D(1,2,8,6)           -178.9676         estimate D2E/DX2                !
 ! D12   D(1,2,8,9)              0.9186         estimate D2E/DX2                !
 ! D13   D(3,2,8,6)              0.9165         estimate D2E/DX2                !
 ! D14   D(3,2,8,9)           -179.1973         estimate D2E/DX2                !
 ! D15   D(2,3,4,5)             -0.493          estimate D2E/DX2                !
 ! D16   D(2,3,4,14)           179.6467         estimate D2E/DX2                !
 ! D17   D(13,3,4,5)           179.4865         estimate D2E/DX2                !
 ! D18   D(13,3,4,14)           -0.3738         estimate D2E/DX2                !
 ! D19   D(3,4,5,6)              0.1763         estimate D2E/DX2                !
 ! D20   D(3,4,5,15)          -179.6756         estimate D2E/DX2                !
 ! D21   D(14,4,5,6)          -179.9633         estimate D2E/DX2                !
 ! D22   D(14,4,5,15)            0.1848         estimate D2E/DX2                !
 ! D23   D(4,5,6,7)           -178.9828         estimate D2E/DX2                !
 ! D24   D(4,5,6,8)              0.7016         estimate D2E/DX2                !
 ! D25   D(15,5,6,7)             0.8681         estimate D2E/DX2                !
 ! D26   D(15,5,6,8)          -179.4475         estimate D2E/DX2                !
 ! D27   D(5,6,7,16)             0.0            estimate D2E/DX2                !
 ! D28   D(8,6,7,16)          -179.679          estimate D2E/DX2                !
 ! D29   D(5,6,8,2)             -1.2448         estimate D2E/DX2                !
 ! D30   D(5,6,8,9)            178.8686         estimate D2E/DX2                !
 ! D31   D(7,6,8,2)            178.4204         estimate D2E/DX2                !
 ! D32   D(7,6,8,9)             -1.4663         estimate D2E/DX2                !
 ! D33   D(2,8,9,17)            56.3992         estimate D2E/DX2                !
 ! D34   D(2,8,9,18)           176.1077         estimate D2E/DX2                !
 ! D35   D(2,8,9,19)           -63.5708         estimate D2E/DX2                !
 ! D36   D(6,8,9,17)          -123.7163         estimate D2E/DX2                !
 ! D37   D(6,8,9,18)            -4.0078         estimate D2E/DX2                !
 ! D38   D(6,8,9,19)           116.3137         estimate D2E/DX2                !
 --------------------------------------------------------------------------------
 Trust Radius=3.00D-01 FncErr=1.00D-07 GrdErr=1.00D-06 EigMax=2.50D+02 EigMin=1.00D-04
 Number of steps in this run=     98 maximum allowed number of steps=    114.
 GradGradGradGradGradGradGradGradGradGradGradGradGradGradGradGradGradGrad

 Leave Link  103 at Mon Feb 22 21:18:30 2021, MaxMem=   104857600 cpu:               0.6 elap:               0.1
 (Enter /sw/arch/RedHatEnterpriseServer7/EB_production/2019/software/Gaussian/g16.c01/l202.exe)
                          Input orientation:                          
 ---------------------------------------------------------------------
 Center     Atomic      Atomic             Coordinates (Angstroms)
 Number     Number       Type             X           Y           Z
 ---------------------------------------------------------------------
      1          6           0       -0.978950    2.546680   -0.026110
      2          6           0       -0.895830    1.127740   -0.475400
      3          6           0       -1.662740    0.719760   -1.595310
      4          6           0       -1.620030   -0.602500   -2.063600
      5          6           0       -0.799420   -1.541560   -1.425260
      6          6           0       -0.023810   -1.161420   -0.316540
      7          8           0        0.760020   -2.122200    0.232480
      8          6           0       -0.067080    0.168470    0.184690
      9          6           0        0.742070    0.550530    1.376850
     10          1           0        0.013800    3.000490   -0.038870
     11          1           0       -1.380780    2.596130    0.987160
     12          1           0       -1.626280    3.151300   -0.665120
     13          1           0       -2.265300    1.384250   -2.087110
     14          1           0       -2.184510   -0.879800   -2.869840
     15          1           0       -0.767160   -2.502750   -1.772400
     16          1           0        0.593815   -2.921242   -0.309997
     17          1           0        0.094620    0.964620    2.151480
     18          1           0        1.274160   -0.291310    1.820790
     19          1           0        1.482620    1.300150    1.093470
 ---------------------------------------------------------------------
                    Distance matrix (angstroms):
                    1          2          3          4          5
     1  C    0.000000
     2  C    1.490692   0.000000
     3  C    2.503516   1.417320   0.000000
     4  C    3.805218   2.457758   1.403386   0.000000
     5  C    4.324761   2.834906   2.426480   1.400968   0.000000
     6  C    3.840136   2.454773   2.803602   2.431569   1.405467
     7  O    4.988920   3.715514   4.157802   3.639520   2.348850
     8  C    2.555744   1.429246   2.453253   2.839165   2.460175
     9  C    2.985770   2.539039   3.826942   4.329629   3.821630
    10  H    1.091631   2.127247   3.230328   4.444150   4.818052
    11  H    1.091159   2.128480   3.204593   4.426693   4.824752
    12  H    1.092216   2.159710   2.603645   4.005846   4.825396
    13  H    2.693262   2.130459   1.022982   2.089043   3.338744
    14  H    4.613127   3.379979   2.110749   1.022524   2.107893
    15  H    5.347067   3.857360   3.349328   2.103125   1.022464
    16  H    5.696696   4.317482   4.472244   3.654148   2.255756
    17  H    2.897821   2.812134   4.145685   4.812774   4.457950
    18  H    4.067153   3.463387   4.617075   4.854036   4.049654
    19  H    2.977688   2.854488   4.178478   4.818050   4.430240
                    6          7          8          9         10
     6  C    0.000000
     7  O    1.356064   0.000000
     8  C    1.421869   2.435887   0.000000
     9  C    2.526839   2.907472   1.490617   0.000000
    10  H    4.171332   5.183862   2.841981   2.921805   0.000000
    11  H    4.202402   5.235953   2.874595   2.973690   1.777948
    12  H    4.613997   5.857467   3.471391   4.067275   1.762043
    13  H    3.826177   5.179599   3.386941   4.662444   3.464364
    14  H    3.356676   4.454010   3.861675   5.352111   5.282387
    15  H    2.114536   2.548851   3.384631   4.638757   5.822429
    16  H    1.865067   0.979986   3.198096   3.862723   5.956243
    17  H    3.259631   3.695102   2.127972   1.091198   2.991477
    18  H    2.647640   2.477746   2.164982   1.090366   3.985322
    19  H    3.211975   3.602212   2.123241   1.091168   2.516105
                   11         12         13         14         15
    11  H    0.000000
    12  H    1.760259   0.000000
    13  H    3.420843   2.356452   0.000000
    14  H    5.254000   4.628410   2.396897   0.000000
    15  H    5.830118   5.825156   4.177587   2.418103   0.000000
    16  H    6.001919   6.475392   5.465339   4.294109   2.041081
    17  H    2.488829   3.959331   4.869390   5.814634   5.306803
    18  H    4.010107   5.142360   5.532356   5.857536   4.687053
    19  H    3.144825   4.023016   4.916306   5.823045   5.266571
                   16         17         18         19
    16  H    0.000000
    17  H    4.626877   0.000000
    18  H    3.452487   1.754432   0.000000
    19  H    4.536501   1.777220   1.762156   0.000000
 Stoichiometry    C8H10O
 Framework group  C1[X(C8H10O)]
 Deg. of freedom    51
 Full point group                 C1      NOp   1
 Largest Abelian subgroup         C1      NOp   1
 Largest concise Abelian subgroup C1      NOp   1
                         Standard orientation:                         
 ---------------------------------------------------------------------
 Center     Atomic      Atomic             Coordinates (Angstroms)
 Number     Number       Type             X           Y           Z
 ---------------------------------------------------------------------
      1          6           0       -2.615866   -0.262070    0.017673
      2          6           0       -1.198967    0.200878    0.002226
      3          6           0       -0.935306    1.593455   -0.000736
      4          6           0        0.379129    2.085023   -0.011383
      5          6           0        1.457502    1.190698   -0.008831
      6          6           0        1.223649   -0.195146    0.000614
      7          8           0        2.319038   -0.994199    0.024051
      8          6           0       -0.100403   -0.713349   -0.007222
      9          6           0       -0.332680   -2.185679   -0.022444
     10          1           0       -2.791290   -0.896414    0.888587
     11          1           0       -2.834342   -0.830696   -0.887624
     12          1           0       -3.326714    0.565867    0.064057
     13          1           0       -1.701535    2.271210    0.005179
     14          1           0        0.549895    3.093160   -0.018822
     15          1           0        2.413756    1.552642   -0.011581
     16          1           0        3.079673   -0.376316    0.029439
     17          1           0       -0.951313   -2.458086   -0.879066
     18          1           0        0.588878   -2.763731   -0.096491
     19          1           0       -0.841659   -2.486913    0.894533
 ---------------------------------------------------------------------
 Rotational constants (GHZ):           2.2710071           1.7205053           0.9912314
 Leave Link  202 at Mon Feb 22 21:18:30 2021, MaxMem=   104857600 cpu:               1.1 elap:               0.1
 (Enter /sw/arch/RedHatEnterpriseServer7/EB_production/2019/software/Gaussian/g16.c01/l301.exe)
 Standard basis: TZVP (5D, 7F)
 Ernie: Thresh=  0.10000D-02 Tol=  0.10000D-05 Strict=F.
 There are   240 symmetry adapted cartesian basis functions of A   symmetry.
 There are   231 symmetry adapted basis functions of A   symmetry.
   231 basis functions,   395 primitive gaussians,   240 cartesian basis functions
    33 alpha electrons       33 beta electrons
       nuclear repulsion energy       429.7552113682 Hartrees.
 IExCor=  404 DFT=T Ex=B Corr=P86 ExCW=0 ScaHFX=  0.000000
 ScaDFX=  1.000000  1.000000  1.000000  1.000000 ScalE2=  1.000000  1.000000
 IRadAn=      5 IRanWt=     -1 IRanGd=            0 ICorTp=0 IEmpDi=131
 NAtoms=   19 NActive=   19 NUniq=   19 SFac= 1.00D+00 NAtFMM=   60 NAOKFM=F Big=F
 Integral buffers will be    131072 words long.
 Raffenetti 2 integral format.
 Two-electron integral symmetry is turned on.
 R6Disp:  Grimme-D3 Dispersion energy=       -0.0151541355 Hartrees.
 Nuclear repulsion after empirical dispersion term =      429.7400572328 Hartrees.
 ------------------------------------------------------------------------------
 Polarizable Continuum Model (PCM)
 =================================
 Model                : PCM.
 Atomic radii         : UFF (Universal Force Field).
 Polarization charges : Total charges.
 Charge compensation  : None.
 Solution method      : On-the-fly selection.
 Cavity type          : Scaled VdW (van der Waals Surface) (Alpha=1.100).
 Cavity algorithm     : GePol (No added spheres)
                        Default sphere list used, NSphG=   19.
                        Lebedev-Laikov grids with approx.  5.0 points / Ang**2.
                        Smoothing algorithm: York/Karplus (Gamma=1.0000).
                        Polarization charges: spherical gaussians, with
                                              point-specific exponents (IZeta= 3).
                        Self-potential: point-specific (ISelfS= 7).
                        Self-field    : sphere-specific E.n sum rule (ISelfD= 2).
 1st derivatives      : Analytical E(r).r(x)/FMM algorithm (CHGder, D1EAlg=3).
                        Cavity 1st derivative terms included.
 Solvent              : Water, Eps=  78.355300 Eps(inf)=   1.777849
 ------------------------------------------------------------------------------
 Spheres list:
 ISph  on   Nord     Re0    Alpha      Xe            Ye            Ze
    1   C      1    1.9255  1.100     -2.615866     -0.262070      0.017673
    2   C      2    1.9255  1.100     -1.198967      0.200878      0.002226
    3   C      3    1.9255  1.100     -0.935306      1.593455     -0.000736
    4   C      4    1.9255  1.100      0.379129      2.085023     -0.011383
    5   C      5    1.9255  1.100      1.457502      1.190698     -0.008831
    6   C      6    1.9255  1.100      1.223649     -0.195146      0.000614
    7   O      7    1.7500  1.100      2.319038     -0.994199      0.024051
    8   C      8    1.9255  1.100     -0.100403     -0.713349     -0.007222
    9   C      9    1.9255  1.100     -0.332680     -2.185679     -0.022444
   10   H     10    1.4430  1.100     -2.791290     -0.896414      0.888587
   11   H     11    1.4430  1.100     -2.834342     -0.830696     -0.887624
   12   H     12    1.4430  1.100     -3.326714      0.565867      0.064057
   13   H     13    1.4430  1.100     -1.701535      2.271210      0.005179
   14   H     14    1.4430  1.100      0.549895      3.093160     -0.018822
   15   H     15    1.4430  1.100      2.413756      1.552642     -0.011581
   16   H     16    1.4430  1.100      3.079673     -0.376316      0.029439
   17   H     17    1.4430  1.100     -0.951313     -2.458086     -0.879066
   18   H     18    1.4430  1.100      0.588878     -2.763731     -0.096491
   19   H     19    1.4430  1.100     -0.841659     -2.486913      0.894533
 ------------------------------------------------------------------------------
 GePol: Number of generator spheres                  =      19
 GePol: Total number of spheres                      =      19
 GePol: Number of exposed spheres                    =      19 (100.00%)
 GePol: Number of points                             =    1488
 GePol: Average weight of points                     =       0.13
 GePol: Minimum weight of points                     =   0.23D-09
 GePol: Maximum weight of points                     =    0.20577
 GePol: Number of points with low weight             =     101
 GePol: Fraction of low-weight points (<1% of avg)   =       6.79%
 GePol: Cavity surface area                          =    192.289 Ang**2
 GePol: Cavity volume                                =    194.082 Ang**3
 Leave Link  301 at Mon Feb 22 21:18:31 2021, MaxMem=   104857600 cpu:               2.1 elap:               0.1
 (Enter /sw/arch/RedHatEnterpriseServer7/EB_production/2019/software/Gaussian/g16.c01/l302.exe)
 NPDir=0 NMtPBC=     1 NCelOv=     1 NCel=       1 NClECP=     1 NCelD=      1
         NCelK=      1 NCelE2=     1 NClLst=     1 CellRange=     0.0.
 One-electron integrals computed using PRISM.
 One-electron integral symmetry used in STVInt
 PrsmSu:  requested number of processors reduced to:  29 ShMem   1 Linda.
 NBasis=   231 RedAO= T EigKep=  8.20D-06  NBF=   231
 NBsUse=   231 1.00D-06 EigRej= -1.00D+00 NBFU=   231
 Precomputing XC quadrature grid using
 IXCGrd= 4 IRadAn=           5 IRanWt=          -1 IRanGd=           0 AccXCQ= 0.00D+00.
 Generated NRdTot=       0 NPtTot=           0 NUsed=           0 NTot=          32
 NSgBfM=   239   239   239   239   239 MxSgAt=    19 MxSgA2=    19.
 Leave Link  302 at Mon Feb 22 21:18:31 2021, MaxMem=   104857600 cpu:               6.3 elap:               0.2
 (Enter /sw/arch/RedHatEnterpriseServer7/EB_production/2019/software/Gaussian/g16.c01/l303.exe)
 DipDrv:  MaxL=1.
 Leave Link  303 at Mon Feb 22 21:18:31 2021, MaxMem=   104857600 cpu:               3.8 elap:               0.2
 (Enter /sw/arch/RedHatEnterpriseServer7/EB_production/2019/software/Gaussian/g16.c01/l401.exe)
 ExpMin= 9.52D-02 ExpMax= 2.70D+04 ExpMxC= 9.22D+02 IAcc=3 IRadAn=         5 AccDes= 0.00D+00
 Harris functional with IExCor=  404 and IRadAn=       5 diagonalized for initial guess.
 HarFok:  IExCor=  404 AccDes= 0.00D+00 IRadAn=         5 IDoV= 1 UseB2=F ITyADJ=14
 ICtDFT=  3500011 ScaDFX=  1.000000  1.000000  1.000000  1.000000
 FoFCou: FMM=F IPFlag=           0 FMFlag=      100000 FMFlg1=           0
         NFxFlg=           0 DoJE=T BraDBF=F KetDBF=T FulRan=T
         wScrn=  0.000000 ICntrl=       500 IOpCl=  0 I1Cent=   200000004 NGrid=           0
         NMat0=    1 NMatS0=      1 NMatT0=    0 NMatD0=    1 NMtDS0=    0 NMtDT0=    0
 Petite list used in FoFCou.
 Harris En= -386.441575598700    
 JPrj=0 DoOrth=F DoCkMO=F.
 Leave Link  401 at Mon Feb 22 21:18:32 2021, MaxMem=   104857600 cpu:              11.3 elap:               0.4
 (Enter /sw/arch/RedHatEnterpriseServer7/EB_production/2019/software/Gaussian/g16.c01/l502.exe)
 Integral symmetry usage will be decided dynamically.
 Closed shell SCF:
 Using DIIS extrapolation, IDIIS=  1040.
 NGot=   104857600 LenX=   104731736 LenY=   104673695
 Requested convergence on RMS density matrix=1.00D-08 within 128 cycles.
 Requested convergence on MAX density matrix=1.00D-06.
 Requested convergence on             energy=1.00D-06.
 No special actions if energy rises.
 Fock matrices will be formed incrementally for  20 cycles.

 Cycle   1  Pass 1  IDiag  1:
 FoFJK:  IHMeth= 1 ICntrl=     500 DoSepK=F KAlg= 0 I1Cent=           0 FoldK=F
 IRaf= 940000000 NMat=       1 IRICut=       1 DoRegI=T DoRafI=F ISym2E= 0 IDoP0=0 IntGTp=1.
 FoFCou: FMM=F IPFlag=           0 FMFlag=      100000 FMFlg1=           0
         NFxFlg=           0 DoJE=T BraDBF=F KetDBF=F FulRan=T
         wScrn=  0.000000 ICntrl=       500 IOpCl=  0 I1Cent=           0 NGrid=           0
         NMat0=    1 NMatS0=      1 NMatT0=    0 NMatD0=    1 NMtDS0=    0 NMtDT0=    0
 Symmetry not used in FoFCou.
 Inv3:  Mode=1 IEnd=     6642432.
 Iteration    1 A*A^-1 deviation from unit magnitude is 3.11D-15 for    560.
 Iteration    1 A*A^-1 deviation from orthogonality  is 2.71D-15 for   1006     16.
 Iteration    1 A^-1*A deviation from unit magnitude is 2.89D-15 for    560.
 Iteration    1 A^-1*A deviation from orthogonality  is 2.31D-15 for    794    222.
 E= -385.980477383831    
 DIIS: error= 3.20D-02 at cycle   1 NSaved=   1.
 NSaved= 1 IEnMin= 1 EnMin= -385.980477383831     IErMin= 1 ErrMin= 3.20D-02
 ErrMax= 3.20D-02  0.00D+00 EMaxC= 1.00D-01 BMatC= 2.50D-01 BMatP= 2.50D-01
 IDIUse=3 WtCom= 6.80D-01 WtEn= 3.20D-01
 Coeff-Com:  0.100D+01
 Coeff-En:   0.100D+01
 Coeff:      0.100D+01
 Gap=     0.162 Goal=   None    Shift=    0.000
 GapD=    0.162 DampG=1.000 DampE=0.500 DampFc=0.5000 IDamp=-1.
 Damping current iteration by 5.00D-01
 RMSDP=7.00D-03 MaxDP=3.43D-01              OVMax= 2.31D-01

 Cycle   2  Pass 1  IDiag  1:
 RMSU=  3.48D-03    CP:  9.73D-01
 E= -386.072746345353     Delta-E=       -0.092268961522 Rises=F Damp=T
 DIIS: error= 7.53D-03 at cycle   2 NSaved=   2.
 NSaved= 2 IEnMin= 2 EnMin= -386.072746345353     IErMin= 2 ErrMin= 7.53D-03
 ErrMax= 7.53D-03  0.00D+00 EMaxC= 1.00D-01 BMatC= 1.85D-02 BMatP= 2.50D-01
 IDIUse=3 WtCom= 9.25D-01 WtEn= 7.53D-02
 Coeff-Com:  0.155D+00 0.845D+00
 Coeff-En:   0.262D+00 0.738D+00
 Coeff:      0.163D+00 0.837D+00
 Gap=     0.155 Goal=   None    Shift=    0.000
 RMSDP=1.88D-03 MaxDP=7.41D-02 DE=-9.23D-02 OVMax= 1.79D-01

 Cycle   3  Pass 1  IDiag  1:
 RMSU=  1.59D-03    CP:  9.56D-01  7.18D-01
 E= -386.222578055627     Delta-E=       -0.149831710274 Rises=F Damp=F
 DIIS: error= 7.97D-03 at cycle   3 NSaved=   3.
 NSaved= 3 IEnMin= 3 EnMin= -386.222578055627     IErMin= 2 ErrMin= 7.53D-03
 ErrMax= 7.97D-03  0.00D+00 EMaxC= 1.00D-01 BMatC= 9.44D-03 BMatP= 1.85D-02
 IDIUse=3 WtCom= 9.20D-01 WtEn= 7.97D-02
 Coeff-Com:  0.513D-01 0.424D+00 0.525D+00
 Coeff-En:   0.000D+00 0.000D+00 0.100D+01
 Coeff:      0.472D-01 0.390D+00 0.563D+00
 Gap=     0.156 Goal=   None    Shift=    0.000
 RMSDP=7.33D-04 MaxDP=2.17D-02 DE=-1.50D-01 OVMax= 7.29D-02

 Cycle   4  Pass 1  IDiag  1:
 RMSU=  6.37D-04    CP:  9.61D-01  6.83D-01  7.90D-01
 E= -386.226992297196     Delta-E=       -0.004414241569 Rises=F Damp=F
 DIIS: error= 6.67D-03 at cycle   4 NSaved=   4.
 NSaved= 4 IEnMin= 4 EnMin= -386.226992297196     IErMin= 4 ErrMin= 6.67D-03
 ErrMax= 6.67D-03  0.00D+00 EMaxC= 1.00D-01 BMatC= 4.92D-03 BMatP= 9.44D-03
 IDIUse=3 WtCom= 9.33D-01 WtEn= 6.67D-02
 Coeff-Com:  0.803D-02 0.120D+00 0.411D+00 0.461D+00
 Coeff-En:   0.000D+00 0.000D+00 0.389D+00 0.611D+00
 Coeff:      0.749D-02 0.112D+00 0.409D+00 0.471D+00
 Gap=     0.154 Goal=   None    Shift=    0.000
 RMSDP=4.12D-04 MaxDP=1.44D-02 DE=-4.41D-03 OVMax= 3.62D-02

 Cycle   5  Pass 1  IDiag  1:
 RMSU=  2.12D-04    CP:  9.57D-01  7.13D-01  8.68D-01  5.17D-01
 E= -386.232251826859     Delta-E=       -0.005259529663 Rises=F Damp=F
 DIIS: error= 1.45D-03 at cycle   5 NSaved=   5.
 NSaved= 5 IEnMin= 5 EnMin= -386.232251826859     IErMin= 5 ErrMin= 1.45D-03
 ErrMax= 1.45D-03  0.00D+00 EMaxC= 1.00D-01 BMatC= 2.20D-04 BMatP= 4.92D-03
 IDIUse=3 WtCom= 9.86D-01 WtEn= 1.45D-02
 Coeff-Com:  0.227D-02 0.420D-01 0.216D+00 0.284D+00 0.456D+00
 Coeff-En:   0.000D+00 0.000D+00 0.000D+00 0.000D+00 0.100D+01
 Coeff:      0.224D-02 0.414D-01 0.212D+00 0.280D+00 0.464D+00
 Gap=     0.154 Goal=   None    Shift=    0.000
 RMSDP=1.09D-04 MaxDP=4.66D-03 DE=-5.26D-03 OVMax= 8.87D-03

 Cycle   6  Pass 1  IDiag  1:
 RMSU=  7.92D-05    CP:  9.57D-01  7.01D-01  8.61D-01  5.69D-01  7.70D-01
 E= -386.232448429628     Delta-E=       -0.000196602769 Rises=F Damp=F
 DIIS: error= 3.96D-04 at cycle   6 NSaved=   6.
 NSaved= 6 IEnMin= 6 EnMin= -386.232448429628     IErMin= 6 ErrMin= 3.96D-04
 ErrMax= 3.96D-04  0.00D+00 EMaxC= 1.00D-01 BMatC= 2.74D-05 BMatP= 2.20D-04
 IDIUse=3 WtCom= 9.96D-01 WtEn= 3.96D-03
 Coeff-Com:  0.302D-03 0.789D-02 0.661D-01 0.964D-01 0.291D+00 0.538D+00
 Coeff-En:   0.000D+00 0.000D+00 0.000D+00 0.000D+00 0.111D+00 0.889D+00
 Coeff:      0.301D-03 0.786D-02 0.658D-01 0.960D-01 0.291D+00 0.539D+00
 Gap=     0.154 Goal=   None    Shift=    0.000
 RMSDP=4.14D-05 MaxDP=1.99D-03 DE=-1.97D-04 OVMax= 1.89D-03

 Cycle   7  Pass 1  IDiag  1:
 RMSU=  1.79D-05    CP:  9.57D-01  7.06D-01  8.65D-01  5.61D-01  7.60D-01
                    CP:  6.12D-01
 E= -386.232472911820     Delta-E=       -0.000024482193 Rises=F Damp=F
 DIIS: error= 7.13D-05 at cycle   7 NSaved=   7.
 NSaved= 7 IEnMin= 7 EnMin= -386.232472911820     IErMin= 7 ErrMin= 7.13D-05
 ErrMax= 7.13D-05  0.00D+00 EMaxC= 1.00D-01 BMatC= 8.06D-07 BMatP= 2.74D-05
 IDIUse=1 WtCom= 1.00D+00 WtEn= 0.00D+00
 Coeff-Com:  0.164D-03 0.329D-02 0.314D-01 0.460D-01 0.149D+00 0.297D+00
 Coeff-Com:  0.473D+00
 Coeff:      0.164D-03 0.329D-02 0.314D-01 0.460D-01 0.149D+00 0.297D+00
 Coeff:      0.473D+00
 Gap=     0.154 Goal=   None    Shift=    0.000
 RMSDP=8.06D-06 MaxDP=4.17D-04 DE=-2.45D-05 OVMax= 3.92D-04

 Cycle   8  Pass 1  IDiag  1:
 RMSU=  5.73D-06    CP:  9.57D-01  7.05D-01  8.64D-01  5.63D-01  7.61D-01
                    CP:  6.37D-01  9.00D-01
 E= -386.232473505425     Delta-E=       -0.000000593604 Rises=F Damp=F
 DIIS: error= 3.11D-05 at cycle   8 NSaved=   8.
 NSaved= 8 IEnMin= 8 EnMin= -386.232473505425     IErMin= 8 ErrMin= 3.11D-05
 ErrMax= 3.11D-05  0.00D+00 EMaxC= 1.00D-01 BMatC= 1.45D-07 BMatP= 8.06D-07
 IDIUse=1 WtCom= 1.00D+00 WtEn= 0.00D+00
 Coeff-Com:  0.558D-04 0.208D-03 0.364D-02 0.509D-02 0.218D-01 0.538D-01
 Coeff-Com:  0.306D+00 0.610D+00
 Coeff:      0.558D-04 0.208D-03 0.364D-02 0.509D-02 0.218D-01 0.538D-01
 Coeff:      0.306D+00 0.610D+00
 Gap=     0.154 Goal=   None    Shift=    0.000
 RMSDP=2.75D-06 MaxDP=1.41D-04 DE=-5.94D-07 OVMax= 2.01D-04

 Cycle   9  Pass 1  IDiag  1:
 RMSU=  1.40D-06    CP:  9.57D-01  7.05D-01  8.65D-01  5.63D-01  7.63D-01
                    CP:  6.24D-01  9.65D-01  8.13D-01
 E= -386.232473629182     Delta-E=       -0.000000123758 Rises=F Damp=F
 DIIS: error= 9.28D-06 at cycle   9 NSaved=   9.
 NSaved= 9 IEnMin= 9 EnMin= -386.232473629182     IErMin= 9 ErrMin= 9.28D-06
 ErrMax= 9.28D-06  0.00D+00 EMaxC= 1.00D-01 BMatC= 1.83D-08 BMatP= 1.45D-07
 IDIUse=1 WtCom= 1.00D+00 WtEn= 0.00D+00
 Coeff-Com:  0.278D-04-0.615D-04 0.571D-03 0.653D-03 0.509D-02 0.173D-01
 Coeff-Com:  0.166D+00 0.390D+00 0.421D+00
 Coeff:      0.278D-04-0.615D-04 0.571D-03 0.653D-03 0.509D-02 0.173D-01
 Coeff:      0.166D+00 0.390D+00 0.421D+00
 Gap=     0.154 Goal=   None    Shift=    0.000
 RMSDP=7.80D-07 MaxDP=2.30D-05 DE=-1.24D-07 OVMax= 6.42D-05

 Cycle  10  Pass 1  IDiag  1:
 RMSU=  4.23D-07    CP:  9.57D-01  7.05D-01  8.65D-01  5.63D-01  7.64D-01
                    CP:  6.29D-01  9.62D-01  8.15D-01  6.90D-01
 E= -386.232473627307     Delta-E=        0.000000001875 Rises=F Damp=F
 DIIS: error= 2.03D-06 at cycle  10 NSaved=  10.
 NSaved=10 IEnMin= 9 EnMin= -386.232473629182     IErMin=10 ErrMin= 2.03D-06
 ErrMax= 2.03D-06  0.00D+00 EMaxC= 1.00D-01 BMatC= 7.25D-10 BMatP= 1.83D-08
 IDIUse=1 WtCom= 1.00D+00 WtEn= 0.00D+00
 Coeff-Com:  0.780D-05-0.342D-04-0.893D-05-0.944D-04 0.478D-03 0.395D-02
 Coeff-Com:  0.508D-01 0.130D+00 0.209D+00 0.606D+00
 Coeff:      0.780D-05-0.342D-04-0.893D-05-0.944D-04 0.478D-03 0.395D-02
 Coeff:      0.508D-01 0.130D+00 0.209D+00 0.606D+00
 Gap=     0.154 Goal=   None    Shift=    0.000
 RMSDP=2.26D-07 MaxDP=7.07D-06 DE= 1.88D-09 OVMax= 1.97D-05

 Cycle  11  Pass 1  IDiag  1:
 RMSU=  1.35D-07    CP:  9.57D-01  7.05D-01  8.65D-01  5.63D-01  7.64D-01
                    CP:  6.30D-01  9.67D-01  8.14D-01  6.84D-01  7.30D-01
 E= -386.232473627809     Delta-E=       -0.000000000502 Rises=F Damp=F
 DIIS: error= 1.19D-06 at cycle  11 NSaved=  11.
 NSaved=11 IEnMin= 9 EnMin= -386.232473629182     IErMin=11 ErrMin= 1.19D-06
 ErrMax= 1.19D-06  0.00D+00 EMaxC= 1.00D-01 BMatC= 2.61D-10 BMatP= 7.25D-10
 IDIUse=1 WtCom= 1.00D+00 WtEn= 0.00D+00
 Coeff-Com:  0.236D-05-0.162D-04-0.797D-04-0.158D-03-0.295D-03 0.819D-03
 Coeff-Com:  0.180D-01 0.506D-01 0.996D-01 0.417D+00 0.415D+00
 Coeff:      0.236D-05-0.162D-04-0.797D-04-0.158D-03-0.295D-03 0.819D-03
 Coeff:      0.180D-01 0.506D-01 0.996D-01 0.417D+00 0.415D+00
 Gap=     0.154 Goal=   None    Shift=    0.000
 RMSDP=7.42D-08 MaxDP=2.22D-06 DE=-5.02D-10 OVMax= 8.14D-06

 Cycle  12  Pass 1  IDiag  1:
 RMSU=  4.50D-08    CP:  9.57D-01  7.05D-01  8.65D-01  5.63D-01  7.64D-01
                    CP:  6.30D-01  9.68D-01  8.16D-01  6.87D-01  7.95D-01
                    CP:  6.98D-01
 E= -386.232473628088     Delta-E=       -0.000000000278 Rises=F Damp=F
 DIIS: error= 2.31D-07 at cycle  12 NSaved=  12.
 NSaved=12 IEnMin= 9 EnMin= -386.232473629182     IErMin=12 ErrMin= 2.31D-07
 ErrMax= 2.31D-07  0.00D+00 EMaxC= 1.00D-01 BMatC= 7.83D-12 BMatP= 2.61D-10
 IDIUse=1 WtCom= 1.00D+00 WtEn= 0.00D+00
 Coeff-Com:  0.336D-06-0.542D-05-0.378D-04-0.705D-04-0.176D-03 0.145D-03
 Coeff-Com:  0.477D-02 0.153D-01 0.346D-01 0.167D+00 0.210D+00 0.568D+00
 Coeff:      0.336D-06-0.542D-05-0.378D-04-0.705D-04-0.176D-03 0.145D-03
 Coeff:      0.477D-02 0.153D-01 0.346D-01 0.167D+00 0.210D+00 0.568D+00
 Gap=     0.154 Goal=   None    Shift=    0.000
 RMSDP=2.56D-08 MaxDP=6.85D-07 DE=-2.78D-10 OVMax= 1.50D-06

 Cycle  13  Pass 1  IDiag  1:
 RMSU=  1.46D-08    CP:  9.57D-01  7.05D-01  8.65D-01  5.63D-01  7.64D-01
                    CP:  6.29D-01  9.68D-01  8.17D-01  6.92D-01  7.89D-01
                    CP:  6.88D-01  7.03D-01
 E= -386.232473628095     Delta-E=       -0.000000000008 Rises=F Damp=F
 DIIS: error= 1.34D-07 at cycle  13 NSaved=  13.
 NSaved=13 IEnMin= 9 EnMin= -386.232473629182     IErMin=13 ErrMin= 1.34D-07
 ErrMax= 1.34D-07  0.00D+00 EMaxC= 1.00D-01 BMatC= 2.57D-12 BMatP= 7.83D-12
 IDIUse=1 WtCom= 1.00D+00 WtEn= 0.00D+00
 Coeff-Com: -0.105D-06-0.158D-05-0.160D-04-0.286D-04-0.831D-04-0.114D-04
 Coeff-Com:  0.968D-03 0.418D-02 0.108D-01 0.581D-01 0.854D-01 0.391D+00
 Coeff-Com:  0.449D+00
 Coeff:     -0.105D-06-0.158D-05-0.160D-04-0.286D-04-0.831D-04-0.114D-04
 Coeff:      0.968D-03 0.418D-02 0.108D-01 0.581D-01 0.854D-01 0.391D+00
 Coeff:      0.449D+00
 Gap=     0.154 Goal=   None    Shift=    0.000
 RMSDP=9.92D-09 MaxDP=4.20D-07 DE=-7.79D-12 OVMax= 7.09D-07

 Error on total polarization charges =  0.01391
 SCF Done:  E(RB-P86) =  -386.232473628     A.U. after   13 cycles
            NFock= 13  Conv=0.99D-08     -V/T= 2.0039
 KE= 3.847418707308D+02 PE=-1.758673938405D+03 EE= 5.579595368136D+02
 Leave Link  502 at Mon Feb 22 21:18:44 2021, MaxMem=   104857600 cpu:             376.1 elap:              12.1
 (Enter /sw/arch/RedHatEnterpriseServer7/EB_production/2019/software/Gaussian/g16.c01/l601.exe)
 Copying SCF densities to generalized density rwf, IOpCl= 0 IROHF=0.

 **********************************************************************

            Population analysis using the SCF Density.

 **********************************************************************

 Orbital symmetries:
       Occupied  (A) (A) (A) (A) (A) (A) (A) (A) (A) (A) (A) (A)
                 (A) (A) (A) (A) (A) (A) (A) (A) (A) (A) (A) (A)
                 (A) (A) (A) (A) (A) (A) (A) (A) (A)
       Virtual   (A) (A) (A) (A) (A) (A) (A) (A) (A) (A) (A) (A)
                 (A) (A) (A) (A) (A) (A) (A) (A) (A) (A) (A) (A)
                 (A) (A) (A) (A) (A) (A) (A) (A) (A) (A) (A) (A)
                 (A) (A) (A) (A) (A) (A) (A) (A) (A) (A) (A) (A)
                 (A) (A) (A) (A) (A) (A) (A) (A) (A) (A) (A) (A)
                 (A) (A) (A) (A) (A) (A) (A) (A) (A) (A) (A) (A)
                 (A) (A) (A) (A) (A) (A) (A) (A) (A) (A) (A) (A)
                 (A) (A) (A) (A) (A) (A) (A) (A) (A) (A) (A) (A)
                 (A) (A) (A) (A) (A) (A) (A) (A) (A) (A) (A) (A)
                 (A) (A) (A) (A) (A) (A) (A) (A) (A) (A) (A) (A)
                 (A) (A) (A) (A) (A) (A) (A) (A) (A) (A) (A) (A)
                 (A) (A) (A) (A) (A) (A) (A) (A) (A) (A) (A) (A)
                 (A) (A) (A) (A) (A) (A) (A) (A) (A) (A) (A) (A)
                 (A) (A) (A) (A) (A) (A) (A) (A) (A) (A) (A) (A)
                 (A) (A) (A) (A) (A) (A) (A) (A) (A) (A) (A) (A)
                 (A) (A) (A) (A) (A) (A) (A) (A) (A) (A) (A) (A)
                 (A) (A) (A) (A) (A) (A)
 The electronic state is 1-A.
 Alpha  occ. eigenvalues --  -18.80564  -9.96068  -9.91330  -9.91046  -9.89374
 Alpha  occ. eigenvalues --   -9.89149  -9.89129  -9.88992  -9.88612  -0.98861
 Alpha  occ. eigenvalues --   -0.78067  -0.71340  -0.69208  -0.63550  -0.61474
 Alpha  occ. eigenvalues --   -0.55976  -0.53265  -0.47968  -0.44930  -0.43924
 Alpha  occ. eigenvalues --   -0.39975  -0.39292  -0.36878  -0.36847  -0.36173
 Alpha  occ. eigenvalues --   -0.35531  -0.35013  -0.32992  -0.31115  -0.29543
 Alpha  occ. eigenvalues --   -0.29350  -0.21788  -0.19898
 Alpha virt. eigenvalues --   -0.04497  -0.02879   0.01724   0.03247   0.05769
 Alpha virt. eigenvalues --    0.07704   0.07914   0.08593   0.09221   0.10077
 Alpha virt. eigenvalues --    0.11453   0.11921   0.12454   0.14098   0.15415
 Alpha virt. eigenvalues --    0.17226   0.17402   0.18273   0.18574   0.19031
 Alpha virt. eigenvalues --    0.20230   0.21635   0.22188   0.22911   0.24684
 Alpha virt. eigenvalues --    0.25701   0.26783   0.27119   0.27993   0.29233
 Alpha virt. eigenvalues --    0.30145   0.31719   0.32451   0.33739   0.34003
 Alpha virt. eigenvalues --    0.36823   0.36951   0.37677   0.37984   0.40946
 Alpha virt. eigenvalues --    0.41795   0.42185   0.42553   0.43429   0.43495
 Alpha virt. eigenvalues --    0.44878   0.45316   0.46855   0.47209   0.48526
 Alpha virt. eigenvalues --    0.49157   0.50068   0.50974   0.51295   0.52675
 Alpha virt. eigenvalues --    0.54907   0.58698   0.60928   0.61986   0.62253
 Alpha virt. eigenvalues --    0.65962   0.67573   0.67992   0.71645   0.75098
 Alpha virt. eigenvalues --    0.79757   0.86739   0.89721   1.07065   1.12252
 Alpha virt. eigenvalues --    1.12320   1.16331   1.17205   1.17857   1.20837
 Alpha virt. eigenvalues --    1.21439   1.23490   1.24071   1.24478   1.25649
 Alpha virt. eigenvalues --    1.25997   1.26649   1.28587   1.30050   1.32933
 Alpha virt. eigenvalues --    1.33994   1.34618   1.36500   1.37684   1.38079
 Alpha virt. eigenvalues --    1.39157   1.39630   1.41013   1.43445   1.44219
 Alpha virt. eigenvalues --    1.45583   1.46346   1.46750   1.47031   1.47481
 Alpha virt. eigenvalues --    1.48961   1.50156   1.50714   1.53456   1.54700
 Alpha virt. eigenvalues --    1.55465   1.56430   1.57700   1.63186   1.66176
 Alpha virt. eigenvalues --    1.70340   1.72625   1.73348   1.73862   1.75216
 Alpha virt. eigenvalues --    1.75449   1.78113   1.82061   1.83194   1.83363
 Alpha virt. eigenvalues --    1.83926   1.87622   1.89752   1.93096   1.93202
 Alpha virt. eigenvalues --    1.97114   1.99321   2.00221   2.04018   2.07929
 Alpha virt. eigenvalues --    2.09832   2.12027   2.14418   2.16263   2.17230
 Alpha virt. eigenvalues --    2.18934   2.21553   2.23425   2.23850   2.24728
 Alpha virt. eigenvalues --    2.25927   2.27514   2.32961   2.34501   2.37654
 Alpha virt. eigenvalues --    2.38254   2.41236   2.42953   2.45309   2.47569
 Alpha virt. eigenvalues --    2.48105   2.48837   2.50564   2.54329   2.54732
 Alpha virt. eigenvalues --    2.56175   2.58398   2.58458   2.61116   2.65558
 Alpha virt. eigenvalues --    2.66815   2.71371   2.73156   2.75644   2.84719
 Alpha virt. eigenvalues --    2.86903   2.89741   2.91975   2.95508   3.01037
 Alpha virt. eigenvalues --    3.03047   3.05498   3.06531   3.08549   3.11776
 Alpha virt. eigenvalues --    3.13137   3.16027   3.20872   3.21995   3.24888
 Alpha virt. eigenvalues --    3.27310   3.28124   3.30244   3.34256   3.40691
 Alpha virt. eigenvalues --    3.48265   3.62926   3.96659   4.19809  21.07658
 Alpha virt. eigenvalues --   21.56969  21.63906  21.80505  21.83441  21.84591
 Alpha virt. eigenvalues --   21.91506  21.98128  43.19128
          Condensed to atoms (all electrons):
               1          2          3          4          5          6
     1  C    5.149519   0.325017  -0.084308   0.024291  -0.003474   0.026642
     2  C    0.325017   5.381635   0.378658   0.012412  -0.136766   0.045136
     3  C   -0.084308   0.378658   5.251248   0.358303   0.047051  -0.166669
     4  C    0.024291   0.012412   0.358303   5.189650   0.174412   0.072595
     5  C   -0.003474  -0.136766   0.047051   0.174412   5.678679   0.316690
     6  C    0.026642   0.045136  -0.166669   0.072595   0.316690   5.165413
     7  O   -0.000058   0.009599  -0.000248   0.016638  -0.118886   0.365777
     8  C   -0.153824   0.200017   0.040555  -0.080078  -0.087866   0.260265
     9  C   -0.033781  -0.121651   0.022621  -0.004273   0.017173  -0.125994
    10  H    0.419117  -0.051510   0.001091  -0.001278   0.000454   0.000236
    11  H    0.429049  -0.054968  -0.003068  -0.000685   0.000087   0.001499
    12  H    0.386354  -0.036900  -0.006547   0.001277   0.000002  -0.001544
    13  H   -0.016293  -0.057080   0.416690  -0.052599   0.014151   0.000524
    14  H   -0.000607   0.018716  -0.063097   0.437116  -0.059753   0.013969
    15  H   -0.000024  -0.000583   0.014523  -0.030381   0.418362  -0.075685
    16  H    0.000045  -0.001058  -0.000568   0.006978  -0.028680  -0.028137
    17  H    0.001951  -0.015537   0.000782  -0.000165   0.000520   0.008055
    18  H    0.001386   0.016305  -0.000677  -0.000546   0.000864  -0.023962
    19  H   -0.003104  -0.014378   0.001598  -0.000361   0.000679  -0.001092
               7          8          9         10         11         12
     1  C   -0.000058  -0.153824  -0.033781   0.419117   0.429049   0.386354
     2  C    0.009599   0.200017  -0.121651  -0.051510  -0.054968  -0.036900
     3  C   -0.000248   0.040555   0.022621   0.001091  -0.003068  -0.006547
     4  C    0.016638  -0.080078  -0.004273  -0.001278  -0.000685   0.001277
     5  C   -0.118886  -0.087866   0.017173   0.000454   0.000087   0.000002
     6  C    0.365777   0.260265  -0.125994   0.000236   0.001499  -0.001544
     7  O    7.790124  -0.088701   0.000476  -0.000007  -0.000007   0.000004
     8  C   -0.088701   5.785704   0.320486  -0.008421  -0.007706   0.017840
     9  C    0.000476   0.320486   5.157169   0.000135  -0.004286   0.001872
    10  H   -0.000007  -0.008421   0.000135   0.541369  -0.033820  -0.023040
    11  H   -0.000007  -0.007706  -0.004286  -0.033820   0.534936  -0.021801
    12  H    0.000004   0.017840   0.001872  -0.023040  -0.021801   0.522301
    13  H    0.000014   0.022908  -0.000166   0.000163  -0.000087   0.005266
    14  H   -0.000134  -0.001317  -0.000003   0.000012   0.000017  -0.000005
    15  H   -0.008030   0.017580  -0.000435   0.000000  -0.000002   0.000002
    16  H    0.303756   0.018063   0.000226  -0.000000  -0.000000  -0.000001
    17  H    0.000126  -0.056340   0.423294  -0.002232   0.004618  -0.000002
    18  H    0.014824  -0.024724   0.386989   0.000088  -0.000016  -0.000031
    19  H    0.000164  -0.054204   0.433397   0.004461  -0.001213  -0.000029
              13         14         15         16         17         18
     1  C   -0.016293  -0.000607  -0.000024   0.000045   0.001951   0.001386
     2  C   -0.057080   0.018716  -0.000583  -0.001058  -0.015537   0.016305
     3  C    0.416690  -0.063097   0.014523  -0.000568   0.000782  -0.000677
     4  C   -0.052599   0.437116  -0.030381   0.006978  -0.000165  -0.000546
     5  C    0.014151  -0.059753   0.418362  -0.028680   0.000520   0.000864
     6  C    0.000524   0.013969  -0.075685  -0.028137   0.008055  -0.023962
     7  O    0.000014  -0.000134  -0.008030   0.303756   0.000126   0.014824
     8  C    0.022908  -0.001317   0.017580   0.018063  -0.056340  -0.024724
     9  C   -0.000166  -0.000003  -0.000435   0.000226   0.423294   0.386989
    10  H    0.000163   0.000012   0.000000  -0.000000  -0.002232   0.000088
    11  H   -0.000087   0.000017  -0.000002  -0.000000   0.004618  -0.000016
    12  H    0.005266  -0.000005   0.000002  -0.000001  -0.000002  -0.000031
    13  H    0.531814  -0.005804  -0.000424  -0.000006  -0.000012   0.000002
    14  H   -0.005804   0.528357  -0.005057  -0.000058  -0.000001   0.000004
    15  H   -0.000424  -0.005057   0.524149   0.002408   0.000019  -0.000020
    16  H   -0.000006  -0.000058   0.002408   0.422100  -0.000009  -0.000482
    17  H   -0.000012  -0.000001   0.000019  -0.000009   0.538964  -0.024137
    18  H    0.000002   0.000004  -0.000020  -0.000482  -0.024137   0.517450
    19  H    0.000015  -0.000002   0.000024  -0.000008  -0.033226  -0.021982
              19
     1  C   -0.003104
     2  C   -0.014378
     3  C    0.001598
     4  C   -0.000361
     5  C    0.000679
     6  C   -0.001092
     7  O    0.000164
     8  C   -0.054204
     9  C    0.433397
    10  H    0.004461
    11  H   -0.001213
    12  H   -0.000029
    13  H    0.000015
    14  H   -0.000002
    15  H    0.000024
    16  H   -0.000008
    17  H   -0.033226
    18  H   -0.021982
    19  H    0.531912
 Mulliken charges:
               1
     1  C   -0.467898
     2  C    0.102934
     3  C   -0.207939
     4  C   -0.123305
     5  C   -0.233697
     6  C    0.146281
     7  O   -0.285432
     8  C   -0.120239
     9  C   -0.473248
    10  H    0.153183
    11  H    0.157453
    12  H    0.154981
    13  H    0.140925
    14  H    0.137648
    15  H    0.143575
    16  H    0.305431
    17  H    0.153333
    18  H    0.158665
    19  H    0.157348
 Sum of Mulliken charges =  -0.00000
 Mulliken charges with hydrogens summed into heavy atoms:
               1
     1  C   -0.002280
     2  C    0.102934
     3  C   -0.067014
     4  C    0.014343
     5  C   -0.090123
     6  C    0.146281
     7  O    0.019999
     8  C   -0.120239
     9  C   -0.003901
 Electronic spatial extent (au):  <R**2>=           1190.1674
 Charge=             -0.0000 electrons
 Dipole moment (field-independent basis, Debye):
    X=              0.3644    Y=              0.6581    Z=              0.0051  Tot=              0.7522
 Quadrupole moment (field-independent basis, Debye-Ang):
   XX=            -43.8906   YY=            -52.8911   ZZ=            -57.8082
   XY=              4.0603   XZ=              0.0154   YZ=              0.0562
 Traceless Quadrupole moment (field-independent basis, Debye-Ang):
   XX=              7.6394   YY=             -1.3611   ZZ=             -6.2783
   XY=              4.0603   XZ=              0.0154   YZ=              0.0562
 Octapole moment (field-independent basis, Debye-Ang**2):
  XXX=             34.9179  YYY=              5.6952  ZZZ=              0.2242  XYY=             -2.0842
  XXY=              9.4216  XXZ=              0.2070  XZZ=              0.6941  YZZ=             -7.0224
  YYZ=             -0.1619  XYZ=              0.0222
 Hexadecapole moment (field-independent basis, Debye-Ang**3):
 XXXX=           -700.5898 YYYY=           -658.2515 ZZZZ=            -79.0690 XXXY=              3.6605
 XXXZ=              1.3316 YYYX=             -0.9782 YYYZ=             -0.0039 ZZZX=              0.4949
 ZZZY=             -0.2646 XXYY=           -256.9926 XXZZ=           -156.4933 YYZZ=           -135.3799
 XXYZ=              0.6044 YYXZ=             -0.5760 ZZXY=              1.5783
 N-N= 4.297400572328D+02 E-N=-1.758673930013D+03  KE= 3.847418707308D+02
 No NMR shielding tensors so no spin-rotation constants.
 Leave Link  601 at Mon Feb 22 21:18:44 2021, MaxMem=   104857600 cpu:               5.0 elap:               0.2
 (Enter /sw/arch/RedHatEnterpriseServer7/EB_production/2019/software/Gaussian/g16.c01/l701.exe)
 ... and contract with generalized density number  0.
 Compute integral first derivatives.
 R6Disp: Adding Grimme-D3 dispersion energy 1st derivatives to the gradient.
 PrsmSu:  requested number of processors reduced to:  29 ShMem   1 Linda.
 D1PCM: PCM CHGder 1st derivatives, ID1Alg=3 FixD1E=F DoIter=F DoCFld=F I1PDM=0.
 GePol: Maximum number of non-zero 1st derivatives   =     194
 CoulSu:  requested number of processors reduced to:  29 ShMem   1 Linda.
 CoulSu:  requested number of processors reduced to:  30 ShMem   1 Linda.
 Leave Link  701 at Mon Feb 22 21:18:45 2021, MaxMem=   104857600 cpu:              21.9 elap:               0.8
 (Enter /sw/arch/RedHatEnterpriseServer7/EB_production/2019/software/Gaussian/g16.c01/l702.exe)
 L702 exits ... SP integral derivatives will be done elsewhere.
 Leave Link  702 at Mon Feb 22 21:18:45 2021, MaxMem=   104857600 cpu:               0.6 elap:               0.0
 (Enter /sw/arch/RedHatEnterpriseServer7/EB_production/2019/software/Gaussian/g16.c01/l703.exe)
 Integral derivatives from FoFJK, PRISM(SPDF).
 Compute integral first derivatives, UseDBF=F ICtDFT=           0.
 Calling FoFJK, ICntrl=      2527 FMM=F ISym2X=0 I1Cent= 0 IOpClX= 0 NMat=1 NMatS=1 NMatT=0.
 FoFJK:  IHMeth= 1 ICntrl=    2527 DoSepK=F KAlg= 0 I1Cent=           0 FoldK=F
 IRaf=         0 NMat=       1 IRICut=       1 DoRegI=T DoRafI=F ISym2E= 0 IDoP0=0 IntGTp=1.
 FoFCou: FMM=F IPFlag=           0 FMFlag=      100000 FMFlg1=         800
         NFxFlg=           0 DoJE=F BraDBF=F KetDBF=F FulRan=T
         wScrn=  0.000000 ICntrl=      2527 IOpCl=  0 I1Cent=           0 NGrid=           0
         NMat0=    1 NMatS0=      1 NMatT0=    0 NMatD0=    1 NMtDS0=    0 NMtDT0=    0
 Symmetry not used in FoFCou.
 Leave Link  703 at Mon Feb 22 21:18:47 2021, MaxMem=   104857600 cpu:              53.3 elap:               1.8
 (Enter /sw/arch/RedHatEnterpriseServer7/EB_production/2019/software/Gaussian/g16.c01/l716.exe)
 Dipole        = 1.43355871D-01 2.58907230D-01 2.00444014D-03
 ***** Axes restored to original set *****
 -------------------------------------------------------------------
 Center     Atomic                   Forces (Hartrees/Bohr)
 Number     Number              X              Y              Z
 -------------------------------------------------------------------
      1        6           0.001968960    0.000070234    0.002053627
      2        6          -0.003940465   -0.022918822   -0.014371140
      3        6           0.034646304   -0.038636617    0.028187340
      4        6           0.034100476    0.015380399    0.048093588
      5        6          -0.010178749    0.061707961    0.012464147
      6        6          -0.018117427    0.015481791   -0.016624402
      7        8           0.011520522   -0.008733243    0.011395899
      8        6          -0.006032222   -0.007360681   -0.009434235
      9        6           0.001304996   -0.000998865    0.001653769
     10        1           0.005347855    0.004994725    0.003792203
     11        1           0.000298759    0.003416754    0.007938623
     12        1          -0.002703264    0.000111029   -0.003585145
     13        1          -0.031203714    0.038468373   -0.023843815
     14        1          -0.030248406   -0.015122997   -0.043415405
     15        1           0.002634754   -0.053433042   -0.018406562
     16        1           0.005561995    0.000013033    0.006984508
     17        1          -0.001686531    0.005642229    0.005292387
     18        1           0.002006094   -0.004789277   -0.000225631
     19        1           0.004720062    0.006707018    0.002050245
 -------------------------------------------------------------------
 Cartesian Forces:  Max     0.061707961 RMS     0.020107470
 Leave Link  716 at Mon Feb 22 21:18:47 2021, MaxMem=   104857600 cpu:               0.8 elap:               0.1
 (Enter /sw/arch/RedHatEnterpriseServer7/EB_production/2019/software/Gaussian/g16.c01/l103.exe)

 GradGradGradGradGradGradGradGradGradGradGradGradGradGradGradGradGradGrad
 Berny optimization.
 FormGI is forming the generalized inverse of G from B-inverse, IUseBI=4.
 Internal  Forces:  Max     0.056564066 RMS     0.011853919
 Search for a local minimum.
 Step number   1 out of a maximum of   98
 All quantities printed in internal units (Hartrees-Bohrs-Radians)
 RMS Force = .11854D-01 SwitMx=.10000D-02 MixMth= 1
 Mixed Optimization -- RFO/linear search
 Second derivative matrix not updated -- first step.
 ITU=  0
     Eigenvalues ---    0.00889   0.00890   0.01401   0.01439   0.01765
     Eigenvalues ---    0.01913   0.01946   0.01969   0.02039   0.02043
     Eigenvalues ---    0.02061   0.02273   0.07159   0.07218   0.07442
     Eigenvalues ---    0.07468   0.16000   0.16000   0.16000   0.16000
     Eigenvalues ---    0.16000   0.16000   0.16000   0.16000   0.16000
     Eigenvalues ---    0.16000   0.22083   0.23458   0.24907   0.25000
     Eigenvalues ---    0.25000   0.25000   0.33374   0.33382   0.34558
     Eigenvalues ---    0.34625   0.34675   0.34678   0.34679   0.34770
     Eigenvalues ---    0.39200   0.39830   0.42155   0.43866   0.43938
     Eigenvalues ---    0.43947   0.44008   0.44104   0.45151   0.51387
     Eigenvalues ---    0.53751
 RFO step:  Lambda=-2.95674281D-02 EMin= 8.89081073D-03
 Linear search not attempted -- first point.
 Iteration  1 RMS(Cart)=  0.05803056 RMS(Int)=  0.00255196
 Iteration  2 RMS(Cart)=  0.00336027 RMS(Int)=  0.00006930
 Iteration  3 RMS(Cart)=  0.00000537 RMS(Int)=  0.00006924
 Iteration  4 RMS(Cart)=  0.00000000 RMS(Int)=  0.00006924
 ITry= 1 IFail=0 DXMaxC= 3.05D-01 DCOld= 1.00D+10 DXMaxT= 3.00D-01 DXLimC= 3.00D+00 Rises=F
 Variable       Old X    -DE/DX   Delta X   Delta X   Delta X     New X
                                 (Linear)    (Quad)   (Total)
    R1        2.81700   0.01098   0.00000   0.03021   0.03021   2.84721
    R2        2.06288   0.00689   0.00000   0.01834   0.01834   2.08123
    R3        2.06199   0.00742   0.00000   0.01970   0.01970   2.08170
    R4        2.06399   0.00376   0.00000   0.01003   0.01003   2.07402
    R5        2.67835  -0.00833   0.00000  -0.01875  -0.01873   2.65962
    R6        2.70088  -0.01278   0.00000  -0.03006  -0.03004   2.67084
    R7        2.65201  -0.00265   0.00000  -0.00513  -0.00513   2.64689
    R8        1.93316   0.05483   0.00000   0.11710   0.11710   2.05026
    R9        2.64745  -0.00380   0.00000  -0.00690  -0.00692   2.64053
   R10        1.93229   0.05503   0.00000   0.11735   0.11735   2.04964
   R11        2.65595   0.00379   0.00000   0.00850   0.00848   2.66443
   R12        1.93218   0.05656   0.00000   0.12060   0.12060   2.05277
   R13        2.56259   0.02350   0.00000   0.04144   0.04144   2.60403
   R14        2.68694  -0.01194   0.00000  -0.02686  -0.02686   2.66008
   R15        1.85191  -0.00482   0.00000  -0.00888  -0.00888   1.84303
   R16        2.81686   0.01214   0.00000   0.03341   0.03341   2.85027
   R17        2.06207   0.00690   0.00000   0.01834   0.01834   2.08040
   R18        2.06049   0.00458   0.00000   0.01215   0.01215   2.07264
   R19        2.06201   0.00728   0.00000   0.01934   0.01934   2.08135
    A1        1.91928   0.00457   0.00000   0.02344   0.02343   1.94271
    A2        1.92149   0.00427   0.00000   0.02175   0.02173   1.94323
    A3        1.96453  -0.00463   0.00000  -0.02296  -0.02283   1.94170
    A4        1.90384  -0.00537   0.00000  -0.03129  -0.03144   1.87240
    A5        1.87761   0.00037   0.00000   0.00349   0.00362   1.88123
    A6        1.87544   0.00047   0.00000   0.00381   0.00393   1.87937
    A7        2.07371   0.00597   0.00000   0.02258   0.02256   2.09626
    A8        2.13176  -0.01100   0.00000  -0.03814  -0.03816   2.09360
    A9        2.07772   0.00503   0.00000   0.01556   0.01560   2.09332
   A10        2.11579  -0.00216   0.00000  -0.00865  -0.00862   2.10716
   A11        2.10786  -0.00274   0.00000  -0.01584  -0.01585   2.09201
   A12        2.05954   0.00490   0.00000   0.02448   0.02447   2.08401
   A13        2.09132  -0.00101   0.00000  -0.00105  -0.00107   2.09024
   A14        2.09650   0.00073   0.00000   0.00172   0.00173   2.09823
   A15        2.09537   0.00028   0.00000  -0.00067  -0.00066   2.09471
   A16        2.09600  -0.00195   0.00000  -0.00454  -0.00458   2.09142
   A17        2.08738   0.00213   0.00000   0.00836   0.00838   2.09576
   A18        2.09981  -0.00018   0.00000  -0.00382  -0.00380   2.09601
   A19        2.03390   0.02294   0.00000   0.08178   0.08179   2.11569
   A20        2.11095  -0.00022   0.00000  -0.00024  -0.00027   2.11068
   A21        2.13832  -0.02271   0.00000  -0.08151  -0.08150   2.05682
   A22        1.82920   0.01392   0.00000   0.07344   0.07344   1.90265
   A23        2.07441   0.00033   0.00000  -0.00098  -0.00097   2.07344
   A24        2.10843  -0.00094   0.00000  -0.00229  -0.00229   2.10613
   A25        2.10034   0.00061   0.00000   0.00327   0.00326   2.10360
   A26        1.92084   0.00336   0.00000   0.01767   0.01764   1.93848
   A27        1.97429  -0.00440   0.00000  -0.02210  -0.02198   1.95231
   A28        1.91429   0.00493   0.00000   0.02496   0.02496   1.93925
   A29        1.86868   0.00101   0.00000   0.00729   0.00739   1.87607
   A30        1.90323  -0.00486   0.00000  -0.02787  -0.02801   1.87522
   A31        1.88069  -0.00036   0.00000  -0.00171  -0.00158   1.87911
    D1       -2.13150  -0.00055   0.00000  -0.00525  -0.00512  -2.13662
    D2        1.00807  -0.00045   0.00000  -0.00324  -0.00316   1.00492
    D3        2.05350   0.00050   0.00000   0.00486   0.00477   2.05828
    D4       -1.09011   0.00060   0.00000   0.00686   0.00674  -1.08337
    D5       -0.03838   0.00001   0.00000   0.00020   0.00022  -0.03817
    D6        3.10119   0.00011   0.00000   0.00220   0.00218   3.10337
    D7        3.13852   0.00011   0.00000   0.00224   0.00226   3.14078
    D8       -0.00270   0.00011   0.00000   0.00249   0.00251  -0.00020
    D9       -0.00112   0.00003   0.00000   0.00036   0.00036  -0.00076
   D10        3.14084   0.00004   0.00000   0.00061   0.00061   3.14145
   D11       -3.12357  -0.00029   0.00000  -0.00646  -0.00646  -3.13003
   D12        0.01603  -0.00034   0.00000  -0.00772  -0.00775   0.00829
   D13        0.01600  -0.00019   0.00000  -0.00444  -0.00449   0.01151
   D14       -3.12758  -0.00024   0.00000  -0.00571  -0.00578  -3.13336
   D15       -0.00860   0.00015   0.00000   0.00320   0.00324  -0.00537
   D16        3.13543   0.00005   0.00000   0.00084   0.00083   3.13626
   D17        3.13263   0.00014   0.00000   0.00295   0.00298   3.13561
   D18       -0.00652   0.00004   0.00000   0.00059   0.00058  -0.00595
   D19        0.00308  -0.00012   0.00000  -0.00248  -0.00252   0.00056
   D20       -3.13593  -0.00013   0.00000  -0.00305  -0.00314  -3.13907
   D21       -3.14095  -0.00001   0.00000  -0.00012  -0.00012  -3.14107
   D22        0.00322  -0.00002   0.00000  -0.00069  -0.00073   0.00249
   D23       -3.12384  -0.00024   0.00000  -0.00629  -0.00651  -3.13035
   D24        0.01225  -0.00009   0.00000  -0.00176  -0.00175   0.01050
   D25        0.01515  -0.00023   0.00000  -0.00570  -0.00588   0.00927
   D26       -3.13195  -0.00007   0.00000  -0.00117  -0.00112  -3.13307
   D27       -0.00000   0.00002   0.00000   0.00051   0.00050   0.00050
   D28       -3.13599  -0.00022   0.00000  -0.00439  -0.00438  -3.14037
   D29       -0.02173   0.00025   0.00000   0.00528   0.00530  -0.01643
   D30        3.12185   0.00030   0.00000   0.00655   0.00659   3.12844
   D31        3.11402   0.00057   0.00000   0.01063   0.01042   3.12444
   D32       -0.02559   0.00062   0.00000   0.01190   0.01171  -0.01388
   D33        0.98435  -0.00045   0.00000  -0.00340  -0.00329   0.98106
   D34        3.07366   0.00027   0.00000   0.00358   0.00361   3.07727
   D35       -1.10952   0.00035   0.00000   0.00430   0.00420  -1.10532
   D36       -2.15926  -0.00050   0.00000  -0.00469  -0.00460  -2.16386
   D37       -0.06995   0.00022   0.00000   0.00229   0.00229  -0.06766
   D38        2.03006   0.00030   0.00000   0.00301   0.00289   2.03294
         Item               Value     Threshold  Converged?
 Maximum Force            0.056564     0.000450     NO 
 RMS     Force            0.011854     0.000300     NO 
 Maximum Displacement     0.305272     0.001800     NO 
 RMS     Displacement     0.059095     0.001200     NO 
 Predicted change in Energy=-1.592555D-02
 Lowest energy point so far.  Saving SCF results.
 GradGradGradGradGradGradGradGradGradGradGradGradGradGradGradGradGradGrad

 Leave Link  103 at Mon Feb 22 21:18:47 2021, MaxMem=   104857600 cpu:               1.6 elap:               0.1
 (Enter /sw/arch/RedHatEnterpriseServer7/EB_production/2019/software/Gaussian/g16.c01/l202.exe)
                          Input orientation:                          
 ---------------------------------------------------------------------
 Center     Atomic      Atomic             Coordinates (Angstroms)
 Number     Number       Type             X           Y           Z
 ---------------------------------------------------------------------
      1          6           0       -0.959441    2.527603   -0.000938
      2          6           0       -0.907777    1.106725   -0.499454
      3          6           0       -1.675532    0.721333   -1.614274
      4          6           0       -1.636696   -0.595747   -2.089329
      5          6           0       -0.822742   -1.538074   -1.455323
      6          6           0       -0.046349   -1.157981   -0.341448
      7          8           0        0.776155   -2.060399    0.297293
      8          6           0       -0.086997    0.159228    0.153326
      9          6           0        0.734491    0.551623    1.355884
     10          1           0        0.041825    2.986268    0.005154
     11          1           0       -1.348418    2.577338    1.028486
     12          1           0       -1.608339    3.147512   -0.632765
     13          1           0       -2.305278    1.449644   -2.114370
     14          1           0       -2.235586   -0.884925   -2.946136
     15          1           0       -0.786908   -2.560365   -1.820893
     16          1           0        0.706017   -2.925026   -0.148455
     17          1           0        0.098958    0.978137    2.147193
     18          1           0        1.264834   -0.306751    1.785868
     19          1           0        1.486996    1.311194    1.091542
 ---------------------------------------------------------------------
                    Distance matrix (angstroms):
                    1          2          3          4          5
     1  C    0.000000
     2  C    1.506679   0.000000
     3  C    2.525519   1.407408   0.000000
     4  C    3.817770   2.440786   1.400673   0.000000
     5  C    4.320144   2.813516   2.420213   1.397306   0.000000
     6  C    3.812245   2.428151   2.793948   2.429074   1.409956
     7  O    4.914366   3.674385   4.171677   3.696352   2.429189
     8  C    2.528667   1.413347   2.442091   2.828614   2.451510
     9  C    2.935110   2.539186   3.828688   4.336875   3.833366
    10  H    1.101337   2.165423   3.271359   4.476062   4.832198
    11  H    1.101586   2.165981   3.245911   4.457842   4.835521
    12  H    1.097525   2.161798   2.618057   4.016762   4.821667
    13  H    2.727612   2.162997   1.084949   2.152035   3.399811
    14  H    4.684877   3.422863   2.160458   1.084624   2.155285
    15  H    5.406424   3.899789   3.406154   2.157295   1.086281
    16  H    5.703216   4.356896   4.595251   3.831558   2.443081
    17  H    2.852283   2.834571   4.166941   4.841253   4.489874
    18  H    4.021646   3.455554   4.611255   4.849696   4.047153
    19  H    2.942485   2.882363   4.203684   4.848899   4.465393
                    6          7          8          9         10
     6  C    0.000000
     7  O    1.377991   0.000000
     8  C    1.407655   2.385897   0.000000
     9  C    2.532468   2.818690   1.508298   0.000000
    10  H    4.159652   5.108173   2.833850   2.869104   0.000000
    11  H    4.186253   5.153355   2.864323   2.923906   1.774037
    12  H    4.589330   5.802858   3.444163   4.022713   1.776508
    13  H    3.878882   5.256591   3.424673   4.699926   3.516033
    14  H    3.413462   4.579536   3.913227   5.421476   5.374276
    15  H    2.168840   2.679523   3.432725   4.700111   5.897998
    16  H    1.930220   0.975290   3.198838   3.788263   5.950474
    17  H    3.282902   3.621247   2.163492   1.100903   2.936696
    18  H    2.639937   2.351584   2.170203   1.096793   3.938358
    19  H    3.240591   3.536067   2.164424   1.101404   2.464676
                   11         12         13         14         15
    11  H    0.000000
    12  H    1.775503   0.000000
    13  H    3.473445   2.358736   0.000000
    14  H    5.345274   4.691020   2.479295   0.000000
    15  H    5.901716   5.887806   4.297877   2.484339   0.000000
    16  H    5.990151   6.516634   5.663078   4.543353   2.271311
    17  H    2.429783   3.917807   4.915647   5.904497   5.389941
    18  H    3.964932   5.102631   5.571578   5.914312   4.721986
    19  H    3.105909   3.990789   4.967734   5.914676   5.351812
                   16         17         18         19
    16  H    0.000000
    17  H    4.568720   0.000000
    18  H    3.302915   1.772219   0.000000
    19  H    4.482531   1.775381   1.774596   0.000000
 Stoichiometry    C8H10O
 Framework group  C1[X(C8H10O)]
 Deg. of freedom    51
 Full point group                 C1      NOp   1
 RotChk:  IX=0 Diff= 1.89D-02
 Largest Abelian subgroup         C1      NOp   1
 Largest concise Abelian subgroup C1      NOp   1
                         Standard orientation:                         
 ---------------------------------------------------------------------
 Center     Atomic      Atomic             Coordinates (Angstroms)
 Number     Number       Type             X           Y           Z
 ---------------------------------------------------------------------
      1          6           0       -2.584746   -0.332608    0.010584
      2          6           0       -1.178137    0.207260    0.001822
      3          6           0       -0.955300    1.596914    0.000559
      4          6           0        0.346801    2.113021   -0.006575
      5          6           0        1.438587    1.240973   -0.006004
      6          6           0        1.223226   -0.152420    0.001067
      7          8           0        2.278697   -1.038221    0.015065
      8          6           0       -0.080541   -0.683125   -0.005075
      9          6           0       -0.300293   -2.175299   -0.014518
     10          1           0       -2.755869   -0.989646    0.877741
     11          1           0       -2.792444   -0.924850   -0.894735
     12          1           0       -3.322130    0.479127    0.054313
     13          1           0       -1.798765    2.279302    0.005725
     14          1           0        0.508935    3.185442   -0.012498
     15          1           0        2.450619    1.635671   -0.009144
     16          1           0        3.114829   -0.536168    0.019023
     17          1           0       -0.924061   -2.478028   -0.869652
     18          1           0        0.645136   -2.726863   -0.084500
     19          1           0       -0.813411   -2.506517    0.902049
 ---------------------------------------------------------------------
 Rotational constants (GHZ):           2.2220837           1.7564319           0.9932863
 Leave Link  202 at Mon Feb 22 21:18:47 2021, MaxMem=   104857600 cpu:               0.5 elap:               0.0
 (Enter /sw/arch/RedHatEnterpriseServer7/EB_production/2019/software/Gaussian/g16.c01/l301.exe)
 Standard basis: TZVP (5D, 7F)
 Ernie: Thresh=  0.10000D-02 Tol=  0.10000D-05 Strict=F.
 There are   240 symmetry adapted cartesian basis functions of A   symmetry.
 There are   231 symmetry adapted basis functions of A   symmetry.
   231 basis functions,   395 primitive gaussians,   240 cartesian basis functions
    33 alpha electrons       33 beta electrons
       nuclear repulsion energy       428.8119794591 Hartrees.
 IExCor=  404 DFT=T Ex=B Corr=P86 ExCW=0 ScaHFX=  0.000000
 ScaDFX=  1.000000  1.000000  1.000000  1.000000 ScalE2=  1.000000  1.000000
 IRadAn=      5 IRanWt=     -1 IRanGd=            0 ICorTp=0 IEmpDi=131
 NAtoms=   19 NActive=   19 NUniq=   19 SFac= 1.00D+00 NAtFMM=   60 NAOKFM=F Big=F
 Integral buffers will be    131072 words long.
 Raffenetti 2 integral format.
 Two-electron integral symmetry is turned on.
 R6Disp:  Grimme-D3 Dispersion energy=       -0.0152537791 Hartrees.
 Nuclear repulsion after empirical dispersion term =      428.7967256800 Hartrees.
 ------------------------------------------------------------------------------
 Polarizable Continuum Model (PCM)
 =================================
 Model                : PCM.
 Atomic radii         : UFF (Universal Force Field).
 Polarization charges : Total charges.
 Charge compensation  : None.
 Solution method      : On-the-fly selection.
 Cavity type          : Scaled VdW (van der Waals Surface) (Alpha=1.100).
 Cavity algorithm     : GePol (No added spheres)
                        Default sphere list used, NSphG=   19.
                        Lebedev-Laikov grids with approx.  5.0 points / Ang**2.
                        Smoothing algorithm: York/Karplus (Gamma=1.0000).
                        Polarization charges: spherical gaussians, with
                                              point-specific exponents (IZeta= 3).
                        Self-potential: point-specific (ISelfS= 7).
                        Self-field    : sphere-specific E.n sum rule (ISelfD= 2).
 1st derivatives      : Analytical E(r).r(x)/FMM algorithm (CHGder, D1EAlg=3).
                        Cavity 1st derivative terms included.
 Solvent              : Water, Eps=  78.355300 Eps(inf)=   1.777849
 ------------------------------------------------------------------------------
 Spheres list:
 ISph  on   Nord     Re0    Alpha      Xe            Ye            Ze
    1   C      1    1.9255  1.100     -2.584746     -0.332608      0.010584
    2   C      2    1.9255  1.100     -1.178137      0.207260      0.001822
    3   C      3    1.9255  1.100     -0.955300      1.596914      0.000559
    4   C      4    1.9255  1.100      0.346801      2.113021     -0.006575
    5   C      5    1.9255  1.100      1.438587      1.240973     -0.006004
    6   C      6    1.9255  1.100      1.223226     -0.152420      0.001067
    7   O      7    1.7500  1.100      2.278697     -1.038221      0.015065
    8   C      8    1.9255  1.100     -0.080541     -0.683125     -0.005075
    9   C      9    1.9255  1.100     -0.300293     -2.175299     -0.014518
   10   H     10    1.4430  1.100     -2.755869     -0.989646      0.877741
   11   H     11    1.4430  1.100     -2.792444     -0.924850     -0.894735
   12   H     12    1.4430  1.100     -3.322130      0.479127      0.054313
   13   H     13    1.4430  1.100     -1.798765      2.279302      0.005725
   14   H     14    1.4430  1.100      0.508935      3.185442     -0.012498
   15   H     15    1.4430  1.100      2.450619      1.635671     -0.009144
   16   H     16    1.4430  1.100      3.114829     -0.536168      0.019023
   17   H     17    1.4430  1.100     -0.924061     -2.478028     -0.869652
   18   H     18    1.4430  1.100      0.645136     -2.726863     -0.084500
   19   H     19    1.4430  1.100     -0.813411     -2.506517      0.902049
 ------------------------------------------------------------------------------
 GePol: Number of generator spheres                  =      19
 GePol: Total number of spheres                      =      19
 GePol: Number of exposed spheres                    =      19 (100.00%)
 GePol: Number of points                             =    1495
 GePol: Average weight of points                     =       0.13
 GePol: Minimum weight of points                     =   0.84D-09
 GePol: Maximum weight of points                     =    0.20577
 GePol: Number of points with low weight             =     100
 GePol: Fraction of low-weight points (<1% of avg)   =       6.69%
 GePol: Cavity surface area                          =    194.356 Ang**2
 GePol: Cavity volume                                =    195.911 Ang**3
 Leave Link  301 at Mon Feb 22 21:18:47 2021, MaxMem=   104857600 cpu:               1.8 elap:               0.1
 (Enter /sw/arch/RedHatEnterpriseServer7/EB_production/2019/software/Gaussian/g16.c01/l302.exe)
[...]
 Spheres list:
 ISph  on   Nord     Re0    Alpha      Xe            Ye            Ze
    1   C      1    2.0000  1.000     -2.588433     -0.315991      0.000079
    2   C      2    2.0000  1.000     -1.175331      0.216674     -0.000092
    3   C      3    2.0000  1.000     -0.943575      1.602622     -0.000063
    4   C      4    2.0000  1.000      0.360622      2.107049      0.000024
    5   C      5    2.0000  1.000      1.448400      1.231549      0.000022
    6   C      6    2.0000  1.000      1.222504     -0.153939     -0.000024
    7   O      7    1.7200  1.000      2.273704     -1.051553      0.000120
    8   C      8    2.0000  1.000     -0.084861     -0.683554     -0.000139
    9   C      9    2.0000  1.000     -0.316560     -2.175358     -0.000027
   10   H     10    1.3000  1.000     -2.782410     -0.945668      0.884015
   11   H     11    1.3000  1.000     -2.782059     -0.947429     -0.882652
   12   H     12    1.3000  1.000     -3.321090      0.502535     -0.000868
   13   H     13    1.3000  1.000     -1.793997      2.288658     -0.000035
   14   H     14    1.3000  1.000      0.534398      3.185348      0.000065
   15   H     15    1.3000  1.000      2.472690      1.615096      0.000214
   16   H     16    1.3000  1.000      3.112236     -0.554478     -0.000495
   17   H     17    1.3000  1.000     -0.897238     -2.487029     -0.883647
   18   H     18    1.3000  1.000      0.627486     -2.731966     -0.000521
   19   H     19    1.3000  1.000     -0.896248     -2.486956      0.884280
 ------------------------------------------------------------------------------
 One-electron integrals computed using PRISM.
 PrsmSu:  requested number of processors reduced to:  29 ShMem   1 Linda.
 NBasis=   231 RedAO= T EigKep=  7.98D-06  NBF=   231
 NBsUse=   231 1.00D-06 EigRej= -1.00D+00 NBFU=   231
 Initial guess from the checkpoint file:  "QWBBPBRQALCEIZ-UHFFFAOYSA-N.chk"
 B after Tr=     0.000000    0.000000    0.000000
         Rot=    1.000000    0.000000   -0.000000    0.000000 Ang=   0.00 deg.
 Requested convergence on RMS density matrix=1.00D-08 within 128 cycles.
 Requested convergence on MAX density matrix=1.00D-06.
 Requested convergence on             energy=1.00D-06.
 No special actions if energy rises.
 Inv3:  Mode=1 IEnd=     4710027.
 Iteration    1 A*A^-1 deviation from unit magnitude is 4.22D-15 for    225.
 Iteration    1 A*A^-1 deviation from orthogonality  is 4.42D-15 for    225     56.
 Iteration    1 A^-1*A deviation from unit magnitude is 3.00D-15 for    541.
 Iteration    1 A^-1*A deviation from orthogonality  is 3.77D-15 for    749    148.
 Error on nuclear    polarization charges =  0.02451
 Error on electronic polarization charges = -0.05579
 SCF Done:  E(RB-P86) =  -386.237671274     A.U. after   10 cycles
            NFock= 10  Conv=0.94D-08     -V/T= 2.0049
 --------------------------------------------------------------------
 Variational C-PCM results
 =========================
 <psi(f)|   H    |psi(f)>                     (a.u.) =    -386.224627
 <psi(f)|H+V(f)/2|psi(f)>                     (a.u.) =    -386.237671
 Total free energy in solution:
 - with all non electrostatic terms           (a.u.) =    -386.226752
 --------------------------------------------------------------------
 (Polarized solute)-Solvent               (kcal/mol) =      -8.19
 --------------------------------------------------------------------
 Cavitation energy                        (kcal/mol) =      21.72
 Dispersion energy                        (kcal/mol) =     -16.18
 Repulsion energy                         (kcal/mol) =       1.32
 Total non electrostatic                  (kcal/mol) =       6.85
 --------------------------------------------------------------------
 Partition over spheres:
 Sphere  on Atom  Surface  Charge   GEl     GCav    GDR
    1      C1      16.08   0.023   -0.00    1.89   -1.21
    2      C2       5.83   0.031   -0.25    0.69   -0.37
    3      C3      13.01   0.060   -0.51    1.53   -0.98
    4      C4      13.99   0.052   -0.44    1.64   -1.04
    5      C5      13.30   0.038   -0.46    1.56   -1.02
    6      C6       7.86   0.025   -0.24    0.92   -0.57
    7      O7      14.51   0.124   -1.56    1.80   -1.31
    8      C8       5.86   0.029   -0.23    0.69   -0.38
    9      C9      15.87   0.026   -0.07    1.86   -1.21
   10      H10      6.42  -0.027   -0.15    0.91   -0.64
   11      H11      6.42  -0.027   -0.15    0.91   -0.64
   12      H12      6.37  -0.027   -0.15    0.90   -0.64
   13      H13      6.41  -0.033   -0.18    0.90   -0.70
   14      H14      6.44  -0.038   -0.23    0.91   -0.81
   15      H15      6.44  -0.045   -0.60    0.91   -0.72
   16      H16      7.99  -0.137   -2.76    1.13   -0.82
   17      H17      6.42  -0.027   -0.12    0.91   -0.65
   18      H18      5.37  -0.019    0.03    0.76   -0.50
   19      H19      6.42  -0.027   -0.12    0.91   -0.65
 --------------------------------------------------------------------
 - cavitation energy not included in the total energy.
 - dispersion energy not included in the total energy.
 - repulsion  energy not included in the total energy.
 After PCM corrections, the energy is  -386.237671274     a.u.
 --------------------------------------------------------------------
 Writing COSMO formatted file "QWBBPBRQALCEIZ-UHFFFAOYSA-N.cosmo"
 Recomputed dielectric energy= -0.013104 old= -0.013044 diff=-6.00D-05

 **********************************************************************

            Population analysis using the SCF Density.

 **********************************************************************

 Orbital symmetries:
       Occupied  (A) (A) (A) (A) (A) (A) (A) (A) (A) (A) (A) (A)
                 (A) (A) (A) (A) (A) (A) (A) (A) (A) (A) (A) (A)
                 (A) (A) (A) (A) (A) (A) (A) (A) (A)
       Virtual   (A) (A) (A) (A) (A) (A) (A) (A) (A) (A) (A) (A)
                 (A) (A) (A) (A) (A) (A) (A) (A) (A) (A) (A) (A)
                 (A) (A) (A) (A) (A) (A) (A) (A) (A) (A) (A) (A)
                 (A) (A) (A) (A) (A) (A) (A) (A) (A) (A) (A) (A)
                 (A) (A) (A) (A) (A) (A) (A) (A) (A) (A) (A) (A)
                 (A) (A) (A) (A) (A) (A) (A) (A) (A) (A) (A) (A)
                 (A) (A) (A) (A) (A) (A) (A) (A) (A) (A) (A) (A)
                 (A) (A) (A) (A) (A) (A) (A) (A) (A) (A) (A) (A)
                 (A) (A) (A) (A) (A) (A) (A) (A) (A) (A) (A) (A)
                 (A) (A) (A) (A) (A) (A) (A) (A) (A) (A) (A) (A)
                 (A) (A) (A) (A) (A) (A) (A) (A) (A) (A) (A) (A)
                 (A) (A) (A) (A) (A) (A) (A) (A) (A) (A) (A) (A)
                 (A) (A) (A) (A) (A) (A) (A) (A) (A) (A) (A) (A)
                 (A) (A) (A) (A) (A) (A) (A) (A) (A) (A) (A) (A)
                 (A) (A) (A) (A) (A) (A) (A) (A) (A) (A) (A) (A)
                 (A) (A) (A) (A) (A) (A) (A) (A) (A) (A) (A) (A)
                 (A) (A) (A) (A) (A) (A)
 The electronic state is 1-A.
 Alpha  occ. eigenvalues --  -18.79952  -9.95926  -9.90977  -9.90666  -9.90021
 Alpha  occ. eigenvalues --   -9.89823  -9.89184  -9.88973  -9.88942  -0.97271
 Alpha  occ. eigenvalues --   -0.78207  -0.70864  -0.68686  -0.62881  -0.61002
 Alpha  occ. eigenvalues --   -0.55386  -0.52567  -0.47257  -0.44032  -0.43026
 Alpha  occ. eigenvalues --   -0.39223  -0.38083  -0.36121  -0.35750  -0.35447
 Alpha  occ. eigenvalues --   -0.34589  -0.34517  -0.32819  -0.30495  -0.29362
 Alpha  occ. eigenvalues --   -0.29351  -0.21870  -0.20032
 Alpha virt. eigenvalues --   -0.04205  -0.02786   0.02362   0.03895   0.04942
 Alpha virt. eigenvalues --    0.07840   0.08131   0.08812   0.09597   0.09962
 Alpha virt. eigenvalues --    0.11414   0.11590   0.12891   0.14195   0.15168
 Alpha virt. eigenvalues --    0.16947   0.17241   0.18823   0.18967   0.18996
 Alpha virt. eigenvalues --    0.20101   0.21681   0.22079   0.23022   0.25057
 Alpha virt. eigenvalues --    0.25871   0.26876   0.27681   0.28182   0.29203
 Alpha virt. eigenvalues --    0.29263   0.31214   0.31745   0.33707   0.34294
 Alpha virt. eigenvalues --    0.36455   0.36911   0.37656   0.38019   0.40298
 Alpha virt. eigenvalues --    0.41194   0.41771   0.42675   0.42944   0.43275
 Alpha virt. eigenvalues --    0.44710   0.45300   0.47053   0.47194   0.47786
 Alpha virt. eigenvalues --    0.48973   0.50107   0.50595   0.51706   0.52488
 Alpha virt. eigenvalues --    0.55253   0.58933   0.60353   0.62298   0.62881
 Alpha virt. eigenvalues --    0.65810   0.67063   0.68298   0.70663   0.76222
 Alpha virt. eigenvalues --    0.78565   0.86770   0.88565   1.07826   1.11376
 Alpha virt. eigenvalues --    1.13069   1.16639   1.18147   1.18427   1.21520
 Alpha virt. eigenvalues --    1.21839   1.24219   1.25359   1.25633   1.26132
 Alpha virt. eigenvalues --    1.26228   1.27937   1.30311   1.30672   1.32879
 Alpha virt. eigenvalues --    1.33738   1.34105   1.36918   1.37837   1.39125
 Alpha virt. eigenvalues --    1.39216   1.39396   1.40379   1.40454   1.44349
 Alpha virt. eigenvalues --    1.45716   1.46144   1.47198   1.47849   1.47942
 Alpha virt. eigenvalues --    1.49494   1.50068   1.51059   1.52507   1.54640
 Alpha virt. eigenvalues --    1.55605   1.56590   1.58336   1.63035   1.67723
 Alpha virt. eigenvalues --    1.70029   1.70922   1.72720   1.72782   1.75095
 Alpha virt. eigenvalues --    1.75132   1.75467   1.79031   1.81591   1.81844
 Alpha virt. eigenvalues --    1.84326   1.85840   1.88626   1.89852   1.93064
 Alpha virt. eigenvalues --    1.98233   1.99402   1.99786   2.04390   2.06581
 Alpha virt. eigenvalues --    2.08080   2.13318   2.14799   2.15837   2.17587
 Alpha virt. eigenvalues --    2.19165   2.20916   2.23405   2.23564   2.25399
 Alpha virt. eigenvalues --    2.25694   2.27400   2.32798   2.34965   2.37545
 Alpha virt. eigenvalues --    2.38551   2.40000   2.41579   2.43449   2.44693
 Alpha virt. eigenvalues --    2.47210   2.47668   2.49324   2.53681   2.54726
 Alpha virt. eigenvalues --    2.54815   2.56051   2.56738   2.62015   2.64199
 Alpha virt. eigenvalues --    2.65632   2.68386   2.70332   2.75831   2.83678
 Alpha virt. eigenvalues --    2.88438   2.88758   2.92468   2.94273   2.97032
 Alpha virt. eigenvalues --    3.02162   3.03484   3.06282   3.07591   3.08740
 Alpha virt. eigenvalues --    3.12342   3.12786   3.20103   3.20359   3.23729
 Alpha virt. eigenvalues --    3.25581   3.26930   3.27863   3.30783   3.41743
 Alpha virt. eigenvalues --    3.49901   3.55885   3.93977   4.20049  21.03337
 Alpha virt. eigenvalues --   21.53348  21.61389  21.78212  21.80588  21.81947
 Alpha virt. eigenvalues --   21.88717  21.97049  43.18498
          Condensed to atoms (all electrons):
               1          2          3          4          5          6
     1  C    5.177428   0.333510  -0.081354   0.024075  -0.003007   0.028698
     2  C    0.333510   5.421663   0.370992  -0.003499  -0.101902   0.074694
     3  C   -0.081354   0.370992   5.241801   0.365847   0.002764  -0.165822
     4  C    0.024075  -0.003499   0.365847   5.195697   0.250905   0.060033
     5  C   -0.003007  -0.101902   0.002764   0.250905   5.530169   0.352967
     6  C    0.028698   0.074694  -0.165822   0.060033   0.352967   5.191409
     7  O   -0.000095   0.008544   0.001525   0.011692  -0.091658   0.355969
     8  C   -0.158107   0.138352   0.053714  -0.088819  -0.105584   0.197336
     9  C   -0.037617  -0.120097   0.019709  -0.002465   0.013016  -0.126718
    10  H    0.419750  -0.046327  -0.001998  -0.000748   0.000182   0.000810
    11  H    0.419821  -0.046400  -0.002041  -0.000731   0.000172   0.000856
    12  H    0.382338  -0.041048  -0.001258   0.000517   0.000259  -0.001944
    13  H   -0.017294  -0.061176   0.421520  -0.057792   0.014161  -0.002104
    14  H   -0.000602   0.019987  -0.065612   0.434570  -0.060450   0.015411
    15  H   -0.000002  -0.001564   0.014779  -0.043635   0.415445  -0.063606
    16  H    0.000044  -0.001642  -0.000114   0.003676  -0.018332  -0.030545
    17  H   -0.000449  -0.011529   0.000878  -0.000247   0.000707   0.003573
    18  H    0.001736   0.015613  -0.000899  -0.000362   0.000415  -0.021485
    19  H   -0.000410  -0.011568   0.000893  -0.000254   0.000718   0.003415
               7          8          9         10         11         12
     1  C   -0.000095  -0.158107  -0.037617   0.419750   0.419821   0.382338
     2  C    0.008544   0.138352  -0.120097  -0.046327  -0.046400  -0.041048
     3  C    0.001525   0.053714   0.019709  -0.001998  -0.002041  -0.001258
     4  C    0.011692  -0.088819  -0.002465  -0.000748  -0.000731   0.000517
     5  C   -0.091658  -0.105584   0.013016   0.000182   0.000172   0.000259
     6  C    0.355969   0.197336  -0.126718   0.000810   0.000856  -0.001944
     7  O    7.826333  -0.095581  -0.004603  -0.000007  -0.000007   0.000005
     8  C   -0.095581   5.883371   0.329132  -0.007543  -0.007540   0.018403
     9  C   -0.004603   0.329132   5.195047  -0.002697  -0.002709   0.002379
    10  H   -0.000007  -0.007543  -0.002697   0.529426  -0.035729  -0.020286
    11  H   -0.000007  -0.007540  -0.002709  -0.035729   0.529544  -0.020291
    12  H    0.000005   0.018403   0.002379  -0.020286  -0.020291   0.515537
    13  H    0.000020   0.026182  -0.000161   0.000138   0.000136   0.005704
    14  H   -0.000164  -0.003127   0.000008   0.000013   0.000013  -0.000010
    15  H   -0.004524   0.018874  -0.000550  -0.000001  -0.000001   0.000002
    16  H    0.304555   0.018040   0.000957  -0.000000  -0.000000  -0.000001
    17  H    0.000205  -0.051801   0.421663  -0.001912   0.004781  -0.000025
    18  H    0.018592  -0.029515   0.384810   0.000054   0.000055  -0.000038
    19  H    0.000203  -0.051698   0.421699   0.004761  -0.001922  -0.000025
              13         14         15         16         17         18
     1  C   -0.017294  -0.000602  -0.000002   0.000044  -0.000449   0.001736
     2  C   -0.061176   0.019987  -0.001564  -0.001642  -0.011529   0.015613
     3  C    0.421520  -0.065612   0.014779  -0.000114   0.000878  -0.000899
     4  C   -0.057792   0.434570  -0.043635   0.003676  -0.000247  -0.000362
     5  C    0.014161  -0.060450   0.415445  -0.018332   0.000707   0.000415
     6  C   -0.002104   0.015411  -0.063606  -0.030545   0.003573  -0.021485
     7  O    0.000020  -0.000164  -0.004524   0.304555   0.000205   0.018592
     8  C    0.026182  -0.003127   0.018874   0.018040  -0.051801  -0.029515
     9  C   -0.000161   0.000008  -0.000550   0.000957   0.421663   0.384810
    10  H    0.000138   0.000013  -0.000001  -0.000000  -0.001912   0.000054
    11  H    0.000136   0.000013  -0.000001  -0.000000   0.004781   0.000055
    12  H    0.005704  -0.000010   0.000002  -0.000001  -0.000025  -0.000038
    13  H    0.539116  -0.006427  -0.000249  -0.000004  -0.000006   0.000002
    14  H   -0.006427   0.533035  -0.006621  -0.000048  -0.000001   0.000005
    15  H   -0.000249  -0.006621   0.518918   0.002451   0.000017  -0.000025
    16  H   -0.000004  -0.000048   0.002451   0.394072  -0.000026  -0.000555
    17  H   -0.000006  -0.000001   0.000017  -0.000026   0.527013  -0.020626
    18  H    0.000002   0.000005  -0.000025  -0.000555  -0.020626   0.508239
    19  H   -0.000006  -0.000001   0.000018  -0.000026  -0.034253  -0.020663
              19
     1  C   -0.000410
     2  C   -0.011568
     3  C    0.000893
     4  C   -0.000254
     5  C    0.000718
     6  C    0.003415
     7  O    0.000203
     8  C   -0.051698
     9  C    0.421699
    10  H    0.004761
    11  H   -0.001922
    12  H   -0.000025
    13  H   -0.000006
    14  H   -0.000001
    15  H    0.000018
    16  H   -0.000026
    17  H   -0.034253
    18  H   -0.020663
    19  H    0.527088
 Mulliken charges:
               1
     1  C   -0.488464
     2  C    0.063397
     3  C   -0.175323
     4  C   -0.148462
     5  C   -0.200946
     6  C    0.127054
     7  O   -0.331002
     8  C   -0.084089
     9  C   -0.490807
    10  H    0.162115
    11  H    0.161993
    12  H    0.159783
    13  H    0.138242
    14  H    0.140021
    15  H    0.150273
    16  H    0.327497
    17  H    0.162038
    18  H    0.164648
    19  H    0.162031
 Sum of Mulliken charges =  -0.00000
 Mulliken charges with hydrogens summed into heavy atoms:
               1
     1  C   -0.004572
     2  C    0.063397
     3  C   -0.037082
     4  C   -0.008441
     5  C   -0.050673
     6  C    0.127054
     7  O   -0.003505
     8  C   -0.084089
     9  C   -0.002089
 Electronic spatial extent (au):  <R**2>=           1190.8429
 Charge=             -0.0000 electrons
 Dipole moment (field-independent basis, Debye):
    X=              0.6302    Y=              0.5845    Z=             -0.0001  Tot=              0.8595
 Quadrupole moment (field-independent basis, Debye-Ang):
   XX=            -42.3932   YY=            -52.8917   ZZ=            -58.2682
   XY=              3.8989   XZ=             -0.0044   YZ=              0.0025
 Traceless Quadrupole moment (field-independent basis, Debye-Ang):
   XX=              8.7912   YY=             -1.7074   ZZ=             -7.0838
   XY=              3.8989   XZ=             -0.0044   YZ=              0.0025
 Octapole moment (field-independent basis, Debye-Ang**2):
  XXX=             41.2943  YYY=              5.7570  ZZZ=              0.0061  XYY=             -2.8178
  XXY=              5.9710  XXZ=             -0.0111  XZZ=              0.7170  YZZ=             -7.5211
  YYZ=             -0.0005  XYZ=              0.0045
 Hexadecapole moment (field-independent basis, Debye-Ang**3):
 XXXX=           -667.6532 YYYY=           -673.7402 ZZZZ=            -79.8200 XXXY=             -6.1007
 XXXZ=             -0.0339 YYYX=              2.1245 YYYZ=              0.0155 ZZZX=             -0.0113
 ZZZY=             -0.0014 XXYY=           -252.6684 XXZZ=           -156.1028 YYZZ=           -139.5962
 XXYZ=              0.0108 YYXZ=              0.0031 ZZXY=              1.6668
 N-N= 4.286572878533D+02 E-N=-1.756372348403D+03  KE= 3.843465595453D+02
 Unable to Open any file for archive entry.
 1\1\GINC-TCN1745\SP\RBP86\TZVP\C8H10O1\ELENAA\22-Feb-2021\0\\# BP86/TZ
 VP SCRF=COSMORS geom=CHECKPOINT guess=CHECKPOINT\\COSMO-file for #QWBB
 PBRQALCEIZ-UHFFFAOYSA-N\\0,1\C,0,-0.9596714026,2.528004509,-0.00060488
 85\C,0,-0.9060185224,1.1049839401,-0.5033201299\C,0,-1.668035796,0.721
 8351817,-1.6200510843\C,0,-1.6259376316,-0.5929350846,-2.0943752268\C,
 0,-0.8214256305,-1.5400428819,-1.4575801017\C,0,-0.0581604177,-1.16259
 8146,-0.341530096\O,0,0.7500135762,-2.0718763863,0.3148241395\C,0,-0.0
 861573087,0.1581235454,0.1530474368\C,0,0.7388204638,0.5534603451,1.35
 39993699\H,0,0.0359716267,3.001034047,-0.0205824364\H,0,-1.3072665854,
 2.5741852937,1.0446048639\H,0,-1.6381070589,3.1392914753,-0.6112005792
 \H,0,-2.297914208,1.4621070345,-2.1191639296\H,0,-2.2205009639,-0.8847
 313248,-2.9628655882\H,0,-0.7807764796,-2.5711514075,-1.8201275274\H,0
 ,0.6740203091,-2.9372945795,-0.1273261823\H,0,0.0993920568,0.935473569
 9,2.1665929052\H,0,1.316026342,-0.2920595144,1.7451047968\H,0,1.444942
 7488,1.3615287682,1.1019168351\\Version=ES64L-G16RevC.01\State=1-A\HF=
 -386.2376713\RMSD=9.383e-09\Dipole=-0.0716147,-0.2654073,-0.1969248\Qu
 adrupole=-3.9530891,6.3893538,-2.4362646,-1.1315924,1.2094043,3.240504
 \PG=C01 [X(C8H10O1)]\\@
 The archive entry for this job was punched.


 THE TEST OF A FIRST RATE INTELLIGENCE IS THE ABILITY TO HOLD TWO OPPOSED
 IDEAS IN THE MIND AT THE SAME TIME, AND STILL RETAIN THE ABILITY TO FUNCTION.
 ONE SHOULD, FOR EXAMPLE, BE ABLE TO SEE THAT THINGS ARE HOPELESS AND YET BE
 DETERMINED TO MAKE THEM OTHERWISE.

                                                       -- F. SCOTT FITZGERALD
 Job cpu time:       0 days  0 hours  4 minutes 59.1 seconds.
 Elapsed time:       0 days  0 hours  0 minutes  9.8 seconds.
 File lengths (MBytes):  RWF=     47 Int=      0 D2E=      0 Chk=      8 Scr=      1
 Normal termination of Gaussian 16 at Mon Feb 22 21:21:11 2021.
