 Entering Gaussian System, Link 0=g16
 Input=REACWASHYHDPSQ-UHFFFAOYSA-N.gjf
 Output=REACWASHYHDPSQ-UHFFFAOYSA-N.log
 Initial command:
 /sw/arch/RedHatEnterpriseServer7/EB_production/2019/software/Gaussian/g16.c01/l1.exe "/scratch-local/elenaa.9715951/Gau-23442.inp" -scrdir="/scratch-local/elenaa.9715951/"
 Entering Link 1 = /sw/arch/RedHatEnterpriseServer7/EB_production/2019/software/Gaussian/g16.c01/l1.exe PID=     23443.
  
 Copyright (c) 1988-2019, Gaussian, Inc.  All Rights Reserved.
  
 This is part of the Gaussian(R) 16 program.  It is based on
 the Gaussian(R) 09 system (copyright 2009, Gaussian, Inc.),
 the Gaussian(R) 03 system (copyright 2003, Gaussian, Inc.),
 the Gaussian(R) 98 system (copyright 1998, Gaussian, Inc.),
 the Gaussian(R) 94 system (copyright 1995, Gaussian, Inc.),
 the Gaussian 92(TM) system (copyright 1992, Gaussian, Inc.),
 the Gaussian 90(TM) system (copyright 1990, Gaussian, Inc.),
 the Gaussian 88(TM) system (copyright 1988, Gaussian, Inc.),
 the Gaussian 86(TM) system (copyright 1986, Carnegie Mellon
 University), and the Gaussian 82(TM) system (copyright 1983,
 Carnegie Mellon University). Gaussian is a federally registered
 trademark of Gaussian, Inc.
  
 This software contains proprietary and confidential information,
 including trade secrets, belonging to Gaussian, Inc.
  
 This software is provided under written license and may be
 used, copied, transmitted, or stored only in accord with that
 written license.
  
 The following legend is applicable only to US Government
 contracts under FAR:
  
                    RESTRICTED RIGHTS LEGEND
  
 Use, reproduction and disclosure by the US Government is
 subject to restrictions as set forth in subparagraphs (a)
 and (c) of the Commercial Computer Software - Restricted
 Rights clause in FAR 52.227-19.
  
 Gaussian, Inc.
 340 Quinnipiac St., Bldg. 40, Wallingford CT 06492
  
  
 ---------------------------------------------------------------
 Warning -- This program may not be used in any manner that
 competes with the business of Gaussian, Inc. or will provide
 assistance to any competitor of Gaussian, Inc.  The licensee
 of this program is prohibited from giving any competitor of
 Gaussian, Inc. access to this program.  By using this program,
 the user acknowledges that Gaussian, Inc. is engaged in the
 business of creating and licensing software in the field of
 computational chemistry and represents and warrants to the
 licensee that it is not a competitor of Gaussian, Inc. and that
 it will not use this program in any manner prohibited above.
 ---------------------------------------------------------------
  

 Cite this work as:
 Gaussian 16, Revision C.01,
 M. J. Frisch, G. W. Trucks, H. B. Schlegel, G. E. Scuseria, 
 M. A. Robb, J. R. Cheeseman, G. Scalmani, V. Barone, 
 G. A. Petersson, H. Nakatsuji, X. Li, M. Caricato, A. V. Marenich, 
 J. Bloino, B. G. Janesko, R. Gomperts, B. Mennucci, H. P. Hratchian, 
 J. V. Ortiz, A. F. Izmaylov, J. L. Sonnenberg, D. Williams-Young, 
 F. Ding, F. Lipparini, F. Egidi, J. Goings, B. Peng, A. Petrone, 
 T. Henderson, D. Ranasinghe, V. G. Zakrzewski, J. Gao, N. Rega, 
 G. Zheng, W. Liang, M. Hada, M. Ehara, K. Toyota, R. Fukuda, 
 J. Hasegawa, M. Ishida, T. Nakajima, Y. Honda, O. Kitao, H. Nakai, 
 T. Vreven, K. Throssell, J. A. Montgomery, Jr., J. E. Peralta, 
 F. Ogliaro, M. J. Bearpark, J. J. Heyd, E. N. Brothers, K. N. Kudin, 
 V. N. Staroverov, T. A. Keith, R. Kobayashi, J. Normand, 
 K. Raghavachari, A. P. Rendell, J. C. Burant, S. S. Iyengar, 
 J. Tomasi, M. Cossi, J. M. Millam, M. Klene, C. Adamo, R. Cammi, 
 J. W. Ochterski, R. L. Martin, K. Morokuma, O. Farkas, 
 J. B. Foresman, and D. J. Fox, Gaussian, Inc., Wallingford CT, 2019.
 
 ******************************************
 Gaussian 16:  ES64L-G16RevC.01  3-Jul-2019
                23-Feb-2021 
 ******************************************
 %chk=REACWASHYHDPSQ-UHFFFAOYSA-N.chk
 %NProcShared=32
 Will use up to   32 processors via shared memory.
 -------------------------------------------------------------
 #P BP86/TZVP EmpiricalDispersion=GD3 SCRF=(Solvent=Water) Opt
 -------------------------------------------------------------
 1/18=20,19=15,26=3,38=1/1,3;
 2/9=110,12=2,17=6,18=5,40=1/2;
 3/5=19,7=101,11=2,25=1,30=1,70=2201,71=1,72=1,74=404,124=31/1,2,3;
 4//1;
 5/5=2,38=5,53=1/2;
 6/7=2,8=2,9=2,10=2,28=1/1;
 7//1,2,3,16;
 1/18=20,19=15,26=3/3(2);
 2/9=110/2;
 99//99;
 2/9=110/2;
 3/5=19,7=101,11=2,25=1,30=1,70=2205,71=1,72=1,74=404,124=31/1,2,3;
 4/5=5,16=3,69=1/1;
 5/5=2,38=5,53=1/2;
 7//1,2,3,16;
 1/18=20,19=15,26=3/3(-5);
 2/9=110/2;
 6/7=2,8=2,9=2,10=2,19=2,28=1/1;
 99/9=1/99;
 Leave Link    1 at Tue Feb 23 00:11:58 2021, MaxMem=           0 cpu:               1.9 elap:               0.1
 (Enter /sw/arch/RedHatEnterpriseServer7/EB_production/2019/software/Gaussian/g16.c01/l101.exe)
 -------------------------------------
 Particle #REACWASHYHDPSQ-UHFFFAOYSA-N
 -------------------------------------
 Symbolic Z-matrix:
 Charge =  1 Multiplicity = 1
 C                    -3.13848  -0.90201  -3.20672 
 C                    -2.23134  -0.64632  -1.98061 
 C                    -2.77944   0.45885  -1.03709 
 C                    -1.96574   0.61794   0.27928 
 N                    -0.57308   0.96803   0.07912 
 C                    -0.24516   2.20631  -0.41743 
 C                     1.09666   2.58158  -0.61126 
 C                     2.11585   1.66968  -0.29355 
 C                     1.77906   0.4036    0.20973 
 C                     0.42318   0.07643   0.39535 
 H                    -2.7107   -1.69132  -3.82734 
 H                    -3.23225   0.00159  -3.81208 
 H                    -4.13241  -1.21893  -2.88561 
 H                    -1.23718  -0.35932  -2.33601 
 H                    -2.1386   -1.58115  -1.42191 
 H                    -2.80114   1.41191  -1.5714 
 H                    -3.81131   0.21506  -0.76939 
 H                    -2.43836   1.39291   0.8932 
 H                    -2.06889  -0.31487   0.84543 
 H                    -0.97423   2.8863   -0.65426 
 H                     1.3292    3.50671  -0.97861 
 H                     3.09747   1.92568  -0.42427 
 H                     2.51107  -0.27231   0.44004 
 H                     0.20163  -0.8491    0.77334 
 
 ITRead=  0  0  0  0  0  0  0  0  0  0  0  0  0  0  0  0  0  0  0  0
 ITRead=  0  0  0  0
 MicOpt= -1 -1 -1 -1 -1 -1 -1 -1 -1 -1 -1 -1 -1 -1 -1 -1 -1 -1 -1 -1
 MicOpt= -1 -1 -1 -1
 NAtoms=     24 NQM=       24 NQMF=       0 NMMI=      0 NMMIF=      0
                NMic=       0 NMicF=      0.
                    Isotopes and Nuclear Properties:
 (Nuclear quadrupole moments (NQMom) in fm**2, nuclear magnetic moments (NMagM)
  in nuclear magnetons)

  Atom         1           2           3           4           5           6           7           8           9          10
 IAtWgt=          12          12          12          12          14          12          12          12          12          12
 AtmWgt=  12.0000000  12.0000000  12.0000000  12.0000000  14.0030740  12.0000000  12.0000000  12.0000000  12.0000000  12.0000000
 NucSpn=           0           0           0           0           2           0           0           0           0           0
 AtZEff=  -0.0000000  -0.0000000  -0.0000000  -0.0000000  -0.0000000  -0.0000000  -0.0000000  -0.0000000  -0.0000000  -0.0000000
 NQMom=    0.0000000   0.0000000   0.0000000   0.0000000   2.0440000   0.0000000   0.0000000   0.0000000   0.0000000   0.0000000
 NMagM=    0.0000000   0.0000000   0.0000000   0.0000000   0.4037610   0.0000000   0.0000000   0.0000000   0.0000000   0.0000000
 AtZNuc=   6.0000000   6.0000000   6.0000000   6.0000000   7.0000000   6.0000000   6.0000000   6.0000000   6.0000000   6.0000000

  Atom        11          12          13          14          15          16          17          18          19          20
 IAtWgt=           1           1           1           1           1           1           1           1           1           1
 AtmWgt=   1.0078250   1.0078250   1.0078250   1.0078250   1.0078250   1.0078250   1.0078250   1.0078250   1.0078250   1.0078250
 NucSpn=           1           1           1           1           1           1           1           1           1           1
 AtZEff=  -0.0000000  -0.0000000  -0.0000000  -0.0000000  -0.0000000  -0.0000000  -0.0000000  -0.0000000  -0.0000000  -0.0000000
 NQMom=    0.0000000   0.0000000   0.0000000   0.0000000   0.0000000   0.0000000   0.0000000   0.0000000   0.0000000   0.0000000
 NMagM=    2.7928460   2.7928460   2.7928460   2.7928460   2.7928460   2.7928460   2.7928460   2.7928460   2.7928460   2.7928460
 AtZNuc=   1.0000000   1.0000000   1.0000000   1.0000000   1.0000000   1.0000000   1.0000000   1.0000000   1.0000000   1.0000000

  Atom        21          22          23          24
 IAtWgt=           1           1           1           1
 AtmWgt=   1.0078250   1.0078250   1.0078250   1.0078250
 NucSpn=           1           1           1           1
 AtZEff=  -0.0000000  -0.0000000  -0.0000000  -0.0000000
 NQMom=    0.0000000   0.0000000   0.0000000   0.0000000
 NMagM=    2.7928460   2.7928460   2.7928460   2.7928460
 AtZNuc=   1.0000000   1.0000000   1.0000000   1.0000000
 Leave Link  101 at Tue Feb 23 00:11:58 2021, MaxMem=   104857600 cpu:               2.2 elap:               0.1
 (Enter /sw/arch/RedHatEnterpriseServer7/EB_production/2019/software/Gaussian/g16.c01/l103.exe)

 GradGradGradGradGradGradGradGradGradGradGradGradGradGradGradGradGradGrad
 Berny optimization.
 Initialization pass.
                           ----------------------------
                           !    Initial Parameters    !
                           ! (Angstroms and Degrees)  !
 --------------------------                            --------------------------
 ! Name  Definition              Value          Derivative Info.                !
 --------------------------------------------------------------------------------
 ! R1    R(1,2)                  1.5465         estimate D2E/DX2                !
 ! R2    R(1,11)                 1.0914         estimate D2E/DX2                !
 ! R3    R(1,12)                 1.0917         estimate D2E/DX2                !
 ! R4    R(1,13)                 1.0915         estimate D2E/DX2                !
 ! R5    R(2,3)                  1.5531         estimate D2E/DX2                !
 ! R6    R(2,14)                 1.0941         estimate D2E/DX2                !
 ! R7    R(2,15)                 1.093          estimate D2E/DX2                !
 ! R8    R(3,4)                  1.5557         estimate D2E/DX2                !
 ! R9    R(3,16)                 1.0928         estimate D2E/DX2                !
 ! R10   R(3,17)                 1.0936         estimate D2E/DX2                !
 ! R11   R(4,5)                  1.4499         estimate D2E/DX2                !
 ! R12   R(4,18)                 1.0958         estimate D2E/DX2                !
 ! R13   R(4,19)                 1.096          estimate D2E/DX2                !
 ! R14   R(5,6)                  1.3738         estimate D2E/DX2                !
 ! R15   R(5,10)                 1.3739         estimate D2E/DX2                !
 ! R16   R(6,7)                  1.4067         estimate D2E/DX2                !
 ! R17   R(6,20)                 1.0247         estimate D2E/DX2                !
 ! R18   R(7,8)                  1.404          estimate D2E/DX2                !
 ! R19   R(7,21)                 1.0222         estimate D2E/DX2                !
 ! R20   R(8,9)                  1.4035         estimate D2E/DX2                !
 ! R21   R(8,22)                 1.0228         estimate D2E/DX2                !
 ! R22   R(9,10)                 1.4071         estimate D2E/DX2                !
 ! R23   R(9,23)                 1.0226         estimate D2E/DX2                !
 ! R24   R(10,24)                1.024          estimate D2E/DX2                !
 ! A1    A(2,1,11)             109.9072         estimate D2E/DX2                !
 ! A2    A(2,1,12)             110.682          estimate D2E/DX2                !
 ! A3    A(2,1,13)             110.4198         estimate D2E/DX2                !
 ! A4    A(11,1,12)            108.4786         estimate D2E/DX2                !
 ! A5    A(11,1,13)            108.3132         estimate D2E/DX2                !
 ! A6    A(12,1,13)            108.9801         estimate D2E/DX2                !
 ! A7    A(1,2,3)              113.0978         estimate D2E/DX2                !
 ! A8    A(1,2,14)             108.5924         estimate D2E/DX2                !
 ! A9    A(1,2,15)             108.278          estimate D2E/DX2                !
 ! A10   A(3,2,14)             109.3511         estimate D2E/DX2                !
 ! A11   A(3,2,15)             109.1491         estimate D2E/DX2                !
 ! A12   A(14,2,15)            108.2583         estimate D2E/DX2                !
 ! A13   A(2,3,4)              113.7179         estimate D2E/DX2                !
 ! A14   A(2,3,16)             109.3032         estimate D2E/DX2                !
 ! A15   A(2,3,17)             108.8497         estimate D2E/DX2                !
 ! A16   A(4,3,16)             109.5668         estimate D2E/DX2                !
 ! A17   A(4,3,17)             108.0109         estimate D2E/DX2                !
 ! A18   A(16,3,17)            107.1799         estimate D2E/DX2                !
 ! A19   A(3,4,5)              114.2223         estimate D2E/DX2                !
 ! A20   A(3,4,18)             108.7101         estimate D2E/DX2                !
 ! A21   A(3,4,19)             107.5066         estimate D2E/DX2                !
 ! A22   A(5,4,18)             108.7144         estimate D2E/DX2                !
 ! A23   A(5,4,19)             111.5437         estimate D2E/DX2                !
 ! A24   A(18,4,19)            105.7777         estimate D2E/DX2                !
 ! A25   A(4,5,6)              119.7888         estimate D2E/DX2                !
 ! A26   A(4,5,10)             120.5347         estimate D2E/DX2                !
 ! A27   A(6,5,10)             119.6729         estimate D2E/DX2                !
 ! A28   A(5,6,7)              121.193          estimate D2E/DX2                !
 ! A29   A(5,6,20)             120.7857         estimate D2E/DX2                !
 ! A30   A(7,6,20)             118.0209         estimate D2E/DX2                !
 ! A31   A(6,7,8)              119.2075         estimate D2E/DX2                !
 ! A32   A(6,7,21)             120.5272         estimate D2E/DX2                !
 ! A33   A(8,7,21)             120.2652         estimate D2E/DX2                !
 ! A34   A(7,8,9)              119.5294         estimate D2E/DX2                !
 ! A35   A(7,8,22)             120.3434         estimate D2E/DX2                !
 ! A36   A(9,8,22)             120.1269         estimate D2E/DX2                !
 ! A37   A(8,9,10)             119.229          estimate D2E/DX2                !
 ! A38   A(8,9,23)             120.3482         estimate D2E/DX2                !
 ! A39   A(10,9,23)            120.4228         estimate D2E/DX2                !
 ! A40   A(5,10,9)             121.1648         estimate D2E/DX2                !
 ! A41   A(5,10,24)            120.9736         estimate D2E/DX2                !
 ! A42   A(9,10,24)            117.8615         estimate D2E/DX2                !
 ! D1    D(11,1,2,3)          -179.4851         estimate D2E/DX2                !
 ! D2    D(11,1,2,14)           58.9451         estimate D2E/DX2                !
 ! D3    D(11,1,2,15)          -58.392          estimate D2E/DX2                !
 ! D4    D(12,1,2,3)            60.7116         estimate D2E/DX2                !
 ! D5    D(12,1,2,14)          -60.8583         estimate D2E/DX2                !
 ! D6    D(12,1,2,15)         -178.1953         estimate D2E/DX2                !
 ! D7    D(13,1,2,3)           -60.052          estimate D2E/DX2                !
 ! D8    D(13,1,2,14)          178.3782         estimate D2E/DX2                !
 ! D9    D(13,1,2,15)           61.0411         estimate D2E/DX2                !
 ! D10   D(1,2,3,4)            173.5257         estimate D2E/DX2                !
 ! D11   D(1,2,3,16)           -63.6902         estimate D2E/DX2                !
 ! D12   D(1,2,3,17)            53.0714         estimate D2E/DX2                !
 ! D13   D(14,2,3,4)           -65.3325         estimate D2E/DX2                !
 ! D14   D(14,2,3,16)           57.4516         estimate D2E/DX2                !
 ! D15   D(14,2,3,17)          174.2131         estimate D2E/DX2                !
 ! D16   D(15,2,3,4)            52.9267         estimate D2E/DX2                !
 ! D17   D(15,2,3,16)          175.7108         estimate D2E/DX2                !
 ! D18   D(15,2,3,17)          -67.5276         estimate D2E/DX2                !
 ! D19   D(2,3,4,5)             60.1115         estimate D2E/DX2                !
 ! D20   D(2,3,4,18)          -178.2996         estimate D2E/DX2                !
 ! D21   D(2,3,4,19)           -64.23           estimate D2E/DX2                !
 ! D22   D(16,3,4,5)           -62.5278         estimate D2E/DX2                !
 ! D23   D(16,3,4,18)           59.0611         estimate D2E/DX2                !
 ! D24   D(16,3,4,19)          173.1307         estimate D2E/DX2                !
 ! D25   D(17,3,4,5)          -178.9633         estimate D2E/DX2                !
 ! D26   D(17,3,4,18)          -57.3743         estimate D2E/DX2                !
 ! D27   D(17,3,4,19)           56.6953         estimate D2E/DX2                !
 ! D28   D(3,4,5,6)             68.2999         estimate D2E/DX2                !
 ! D29   D(3,4,5,10)          -112.3929         estimate D2E/DX2                !
 ! D30   D(18,4,5,6)           -53.2867         estimate D2E/DX2                !
 ! D31   D(18,4,5,10)          126.0205         estimate D2E/DX2                !
 ! D32   D(19,4,5,6)          -169.5429         estimate D2E/DX2                !
 ! D33   D(19,4,5,10)            9.7643         estimate D2E/DX2                !
 ! D34   D(4,5,6,7)            179.3889         estimate D2E/DX2                !
 ! D35   D(4,5,6,20)            -0.3611         estimate D2E/DX2                !
 ! D36   D(10,5,6,7)             0.0757         estimate D2E/DX2                !
 ! D37   D(10,5,6,20)         -179.6743         estimate D2E/DX2                !
 ! D38   D(4,5,10,9)          -179.8344         estimate D2E/DX2                !
 ! D39   D(4,5,10,24)            0.2279         estimate D2E/DX2                !
 ! D40   D(6,5,10,9)            -0.5264         estimate D2E/DX2                !
 ! D41   D(6,5,10,24)          179.5359         estimate D2E/DX2                !
 ! D42   D(5,6,7,8)              0.1731         estimate D2E/DX2                !
 ! D43   D(5,6,7,21)          -179.8067         estimate D2E/DX2                !
 ! D44   D(20,6,7,8)           179.9298         estimate D2E/DX2                !
 ! D45   D(20,6,7,21)           -0.05           estimate D2E/DX2                !
 ! D46   D(6,7,8,9)              0.0251         estimate D2E/DX2                !
 ! D47   D(6,7,8,22)          -179.7654         estimate D2E/DX2                !
 ! D48   D(21,7,8,9)          -179.995          estimate D2E/DX2                !
 ! D49   D(21,7,8,22)            0.2144         estimate D2E/DX2                !
 ! D50   D(7,8,9,10)            -0.458          estimate D2E/DX2                !
 ! D51   D(7,8,9,23)           179.6363         estimate D2E/DX2                !
 ! D52   D(22,8,9,10)          179.333          estimate D2E/DX2                !
 ! D53   D(22,8,9,23)           -0.5727         estimate D2E/DX2                !
 ! D54   D(8,9,10,5)             0.719          estimate D2E/DX2                !
 ! D55   D(8,9,10,24)         -179.3415         estimate D2E/DX2                !
 ! D56   D(23,9,10,5)         -179.3754         estimate D2E/DX2                !
 ! D57   D(23,9,10,24)           0.5641         estimate D2E/DX2                !
 --------------------------------------------------------------------------------
 Trust Radius=3.00D-01 FncErr=1.00D-07 GrdErr=1.00D-06 EigMax=2.50D+02 EigMin=1.00D-04
 Number of steps in this run=    133 maximum allowed number of steps=    144.
 GradGradGradGradGradGradGradGradGradGradGradGradGradGradGradGradGradGrad

 Leave Link  103 at Tue Feb 23 00:11:58 2021, MaxMem=   104857600 cpu:               0.6 elap:               0.1
 (Enter /sw/arch/RedHatEnterpriseServer7/EB_production/2019/software/Gaussian/g16.c01/l202.exe)
                          Input orientation:                          
 ---------------------------------------------------------------------
 Center     Atomic      Atomic             Coordinates (Angstroms)
 Number     Number       Type             X           Y           Z
 ---------------------------------------------------------------------
      1          6           0       -3.138480   -0.902010   -3.206720
      2          6           0       -2.231340   -0.646320   -1.980610
      3          6           0       -2.779440    0.458850   -1.037090
      4          6           0       -1.965740    0.617940    0.279280
      5          7           0       -0.573080    0.968030    0.079120
      6          6           0       -0.245160    2.206310   -0.417430
      7          6           0        1.096660    2.581580   -0.611260
      8          6           0        2.115850    1.669680   -0.293550
      9          6           0        1.779060    0.403600    0.209730
     10          6           0        0.423180    0.076430    0.395350
     11          1           0       -2.710700   -1.691320   -3.827340
     12          1           0       -3.232250    0.001590   -3.812080
     13          1           0       -4.132410   -1.218930   -2.885610
     14          1           0       -1.237180   -0.359320   -2.336010
     15          1           0       -2.138600   -1.581150   -1.421910
     16          1           0       -2.801140    1.411910   -1.571400
     17          1           0       -3.811310    0.215060   -0.769390
     18          1           0       -2.438360    1.392910    0.893200
     19          1           0       -2.068890   -0.314870    0.845430
     20          1           0       -0.974230    2.886300   -0.654260
     21          1           0        1.329200    3.506710   -0.978610
     22          1           0        3.097470    1.925680   -0.424270
     23          1           0        2.511070   -0.272310    0.440040
     24          1           0        0.201630   -0.849100    0.773340
 ---------------------------------------------------------------------
                    Distance matrix (angstroms):
                    1          2          3          4          5
     1  C    0.000000
     2  C    1.546488   0.000000
     3  C    2.586145   1.553076   0.000000
     4  C    3.979669   2.603075   1.555714   0.000000
     5  N    4.568925   3.098135   2.524522   1.449872   0.000000
     6  C    5.080659   3.811291   3.140091   2.443096   1.373838
     7  C    6.066978   4.834257   4.439760   3.745295   2.422437
     8  C    6.535146   5.206543   5.097335   4.253665   2.803844
     9  C    6.128536   4.688628   4.726260   3.751574   2.422437
    10  C    5.159232   3.635111   3.529151   2.452273   1.373858
    11  H    1.091410   2.175367   3.523273   4.769903   5.186713
    12  H    1.091671   2.185381   2.848630   4.327027   4.811094
    13  H    1.091534   2.181966   2.839454   4.252656   5.122621
    14  H    2.160461   1.094090   2.176043   2.885408   2.834738
    15  H    2.155583   1.093002   2.172639   2.785664   3.346978
    16  H    2.853471   2.174497   1.092832   2.180206   2.808113
    17  H    2.764258   2.169178   1.093550   2.160590   3.431190
    18  H    4.750386   3.529887   2.171364   1.095831   2.079067
    19  H    4.231864   2.850044   2.155784   1.096038   2.114358
    20  H    5.054733   3.977302   3.049239   2.645760   2.092493
    21  H    6.660439   5.561394   5.116033   4.558937   3.344003
    22  H    7.390868   6.118300   6.088120   5.276482   3.826674
    23  H    6.753725   5.337591   5.541300   4.567299   3.343754
    24  H    5.196154   3.680313   3.724939   2.663418   2.093819
                    6          7          8          9         10
     6  C    0.000000
     7  C    1.406726   0.000000
     8  C    2.424394   1.404012   0.000000
     9  C    2.782186   2.425550   1.403452   0.000000
    10  C    2.375643   2.782556   2.424492   1.407091   0.000000
    11  H    5.735669   6.564818   6.861456   6.390976   5.547725
    12  H    5.030621   5.970013   6.615493   6.438152   5.574068
    13  H    5.738893   6.852716   7.355515   6.867256   5.761602
    14  H    3.353731   4.131642   4.419422   4.020018   3.225988
    15  H    4.351890   5.334077   5.471877   4.685034   3.551439
    16  H    2.914747   4.181249   5.086859   5.016707   4.005977
    17  H    4.099558   5.451017   6.121566   5.678597   4.393944
    18  H    2.681324   4.021530   4.714425   4.385487   3.188947
    19  H    3.358148   4.531233   4.769462   3.965732   2.562440
    20  H    1.024704   2.093630   3.340490   3.806689   3.309049
    21  H    2.117681   1.022197   2.112535   3.353180   3.804663
    22  H    3.354396   2.113862   1.022840   2.111134   3.353107
    23  H    3.804683   3.354173   2.113215   1.022612   2.117286
    24  H    3.309544   3.806279   3.338674   2.091698   1.023995
                   11         12         13         14         15
    11  H    0.000000
    12  H    1.771494   0.000000
    13  H    1.769539   1.777162   0.000000
    14  H    2.483858   2.507856   3.069747   0.000000
    15  H    2.474981   3.068232   2.499780   1.772288   0.000000
    16  H    3.837640   2.682444   3.228118   2.483517   3.069155
    17  H    3.767849   3.104649   2.576397   3.067630   2.539707
    18  H    5.645365   4.970482   4.896010   3.865351   3.780823
    19  H    4.913381   4.811024   4.358451   3.288659   2.597914
    20  H    5.834241   4.836531   5.639675   3.664898   4.680081
    21  H    7.173254   6.412585   7.469773   4.834773   6.173206
    22  H    7.641885   7.432680   8.259415   5.259769   6.380405
    23  H    6.891372   7.151312   7.489450   4.665126   5.176809
    24  H    5.509742   5.791484   5.684065   3.460942   3.291154
                   16         17         18         19         20
    16  H    0.000000
    17  H    1.759578   0.000000
    18  H    2.491229   2.456935   0.000000
    19  H    3.059253   2.434029   1.747942   0.000000
    20  H    2.520431   3.898436   2.601638   3.700654   0.000000
    21  H    4.668972   6.107665   4.708113   5.429421   2.407468
    22  H    6.031042   7.125768   5.715329   5.772649   4.189800
    23  H    5.924699   6.455443   5.241676   4.598063   4.829247
    24  H    4.430192   4.429011   3.465620   2.333637   4.168201
                   21         22         23         24
    21  H    0.000000
    22  H    2.435924   0.000000
    23  H    4.205993   2.433528   0.000000
    24  H    4.828439   4.185638   2.403599   0.000000
 Stoichiometry    C9H14N(1+)
 Framework group  C1[X(C9H14N)]
 Deg. of freedom    66
 Full point group                 C1      NOp   1
 Largest Abelian subgroup         C1      NOp   1
 Largest concise Abelian subgroup C1      NOp   1
                         Standard orientation:                         
 ---------------------------------------------------------------------
 Center     Atomic      Atomic             Coordinates (Angstroms)
 Number     Number       Type             X           Y           Z
 ---------------------------------------------------------------------
      1          6           0       -3.631140   -0.763553   -0.894159
      2          6           0       -2.284269   -0.648165   -0.142993
      3          6           0       -1.938604    0.809189    0.267712
      4          6           0       -0.669830    0.923461    1.160685
      5          7           0        0.541308    0.423187    0.540201
      6          6           0        1.085282    1.090171   -0.530619
      7          6           0        2.266268    0.638193   -1.146952
      8          6           0        2.895113   -0.517933   -0.657895
      9          6           0        2.335890   -1.200478    0.433470
     10          6           0        1.158210   -0.705349    1.023237
     11          1           0       -3.826305   -1.806676   -1.149075
     12          1           0       -3.609348   -0.180177   -1.816625
     13          1           0       -4.449119   -0.405022   -0.266615
     14          1           0       -1.491332   -1.041320   -0.786197
     15          1           0       -2.337642   -1.270384    0.754028
     16          1           0       -1.809346    1.416879   -0.631336
     17          1           0       -2.781852    1.229222    0.823013
     18          1           0       -0.520133    1.976177    1.425686
     19          1           0       -0.882393    0.406176    2.103306
     20          1           0        0.642122    1.936354   -0.901565
     21          1           0        2.663780    1.144044   -1.941298
     22          1           0        3.756487   -0.859968   -1.090618
     23          1           0        2.780418   -2.046932    0.796301
     24          1           0        0.773983   -1.213900    1.824680
 ---------------------------------------------------------------------
 Rotational constants (GHZ):           2.5638845           0.6982503           0.6884354
 Leave Link  202 at Tue Feb 23 00:11:59 2021, MaxMem=   104857600 cpu:               0.8 elap:               0.1
 (Enter /sw/arch/RedHatEnterpriseServer7/EB_production/2019/software/Gaussian/g16.c01/l301.exe)
 Standard basis: TZVP (5D, 7F)
 Ernie: Thresh=  0.10000D-02 Tol=  0.10000D-05 Strict=F.
 There are   284 symmetry adapted cartesian basis functions of A   symmetry.
 There are   274 symmetry adapted basis functions of A   symmetry.
   274 basis functions,   462 primitive gaussians,   284 cartesian basis functions
    37 alpha electrons       37 beta electrons
       nuclear repulsion energy       515.4731987567 Hartrees.
 IExCor=  404 DFT=T Ex=B Corr=P86 ExCW=0 ScaHFX=  0.000000
 ScaDFX=  1.000000  1.000000  1.000000  1.000000 ScalE2=  1.000000  1.000000
 IRadAn=      5 IRanWt=     -1 IRanGd=            0 ICorTp=0 IEmpDi=131
 NAtoms=   24 NActive=   24 NUniq=   24 SFac= 1.00D+00 NAtFMM=   60 NAOKFM=F Big=F
 Integral buffers will be    131072 words long.
 Raffenetti 2 integral format.
 Two-electron integral symmetry is turned on.
 R6Disp:  Grimme-D3 Dispersion energy=       -0.0209256698 Hartrees.
 Nuclear repulsion after empirical dispersion term =      515.4522730869 Hartrees.
 ------------------------------------------------------------------------------
 Polarizable Continuum Model (PCM)
 =================================
 Model                : PCM.
 Atomic radii         : UFF (Universal Force Field).
 Polarization charges : Total charges.
 Charge compensation  : None.
 Solution method      : On-the-fly selection.
 Cavity type          : Scaled VdW (van der Waals Surface) (Alpha=1.100).
 Cavity algorithm     : GePol (No added spheres)
                        Default sphere list used, NSphG=   24.
                        Lebedev-Laikov grids with approx.  5.0 points / Ang**2.
                        Smoothing algorithm: York/Karplus (Gamma=1.0000).
                        Polarization charges: spherical gaussians, with
                                              point-specific exponents (IZeta= 3).
                        Self-potential: point-specific (ISelfS= 7).
                        Self-field    : sphere-specific E.n sum rule (ISelfD= 2).
 1st derivatives      : Analytical E(r).r(x)/FMM algorithm (CHGder, D1EAlg=3).
                        Cavity 1st derivative terms included.
 Solvent              : Water, Eps=  78.355300 Eps(inf)=   1.777849
 ------------------------------------------------------------------------------
 GePol: Number of generator spheres                  =      24
 GePol: Total number of spheres                      =      24
 GePol: Number of exposed spheres                    =      24 (100.00%)
 GePol: Number of points                             =    1770
 GePol: Average weight of points                     =       0.13
 GePol: Minimum weight of points                     =   0.28D-11
 GePol: Maximum weight of points                     =    0.20577
 GePol: Number of points with low weight             =     125
 GePol: Fraction of low-weight points (<1% of avg)   =       7.06%
 GePol: Cavity surface area                          =    231.283 Ang**2
 GePol: Cavity volume                                =    232.229 Ang**3
 Leave Link  301 at Tue Feb 23 00:11:59 2021, MaxMem=   104857600 cpu:               1.8 elap:               0.1
 (Enter /sw/arch/RedHatEnterpriseServer7/EB_production/2019/software/Gaussian/g16.c01/l302.exe)
 NPDir=0 NMtPBC=     1 NCelOv=     1 NCel=       1 NClECP=     1 NCelD=      1
         NCelK=      1 NCelE2=     1 NClLst=     1 CellRange=     0.0.
 One-electron integrals computed using PRISM.
 One-electron integral symmetry used in STVInt
 PrsmSu:  requested number of processors reduced to:  28 ShMem   1 Linda.
 NBasis=   274 RedAO= T EigKep=  5.22D-05  NBF=   274
 NBsUse=   274 1.00D-06 EigRej= -1.00D+00 NBFU=   274
 Precomputing XC quadrature grid using
 IXCGrd= 4 IRadAn=           5 IRanWt=          -1 IRanGd=           0 AccXCQ= 0.00D+00.
 Generated NRdTot=       0 NPtTot=           0 NUsed=           0 NTot=          32
 NSgBfM=   281   281   281   281   281 MxSgAt=    24 MxSgA2=    24.
 Leave Link  302 at Tue Feb 23 00:11:59 2021, MaxMem=   104857600 cpu:               7.4 elap:               0.3
 (Enter /sw/arch/RedHatEnterpriseServer7/EB_production/2019/software/Gaussian/g16.c01/l303.exe)
 DipDrv:  MaxL=1.
 Leave Link  303 at Tue Feb 23 00:11:59 2021, MaxMem=   104857600 cpu:               2.8 elap:               0.1
 (Enter /sw/arch/RedHatEnterpriseServer7/EB_production/2019/software/Gaussian/g16.c01/l401.exe)
 ExpMin= 9.52D-02 ExpMax= 1.97D+04 ExpMxC= 6.73D+02 IAcc=3 IRadAn=         5 AccDes= 0.00D+00
 Harris functional with IExCor=  404 and IRadAn=       5 diagonalized for initial guess.
 HarFok:  IExCor=  404 AccDes= 0.00D+00 IRadAn=         5 IDoV= 1 UseB2=F ITyADJ=14
 ICtDFT=  3500011 ScaDFX=  1.000000  1.000000  1.000000  1.000000
 FoFCou: FMM=F IPFlag=           0 FMFlag=      100000 FMFlg1=           0
         NFxFlg=           0 DoJE=T BraDBF=F KetDBF=T FulRan=T
         wScrn=  0.000000 ICntrl=       500 IOpCl=  0 I1Cent=   200000004 NGrid=           0
         NMat0=    1 NMatS0=      1 NMatT0=    0 NMatD0=    1 NMtDS0=    0 NMtDT0=    0
 Petite list used in FoFCou.
 Harris En= -406.269141809957    
 JPrj=0 DoOrth=F DoCkMO=F.
 Leave Link  401 at Tue Feb 23 00:12:00 2021, MaxMem=   104857600 cpu:              14.3 elap:               0.5
 (Enter /sw/arch/RedHatEnterpriseServer7/EB_production/2019/software/Gaussian/g16.c01/l502.exe)
 Integral symmetry usage will be decided dynamically.
 Closed shell SCF:
 Using DIIS extrapolation, IDIIS=  1040.
 NGot=   104857600 LenX=   104683614 LenY=   104602517
 Requested convergence on RMS density matrix=1.00D-08 within 128 cycles.
 Requested convergence on MAX density matrix=1.00D-06.
 Requested convergence on             energy=1.00D-06.
 No special actions if energy rises.
 Fock matrices will be formed incrementally for  20 cycles.

 Cycle   1  Pass 1  IDiag  1:
 FoFJK:  IHMeth= 1 ICntrl=     500 DoSepK=F KAlg= 0 I1Cent=           0 FoldK=F
 IRaf= 910000000 NMat=       1 IRICut=       1 DoRegI=T DoRafI=F ISym2E= 0 IDoP0=0 IntGTp=1.
 FoFCou: FMM=F IPFlag=           0 FMFlag=      100000 FMFlg1=           0
         NFxFlg=           0 DoJE=T BraDBF=F KetDBF=F FulRan=T
         wScrn=  0.000000 ICntrl=       500 IOpCl=  0 I1Cent=           0 NGrid=           0
         NMat0=    1 NMatS0=      1 NMatT0=    0 NMatD0=    1 NMtDS0=    0 NMtDT0=    0
 Symmetry not used in FoFCou.
 Inv3:  Mode=1 IEnd=     9398700.
 Iteration    1 A*A^-1 deviation from unit magnitude is 2.89D-15 for    220.
 Iteration    1 A*A^-1 deviation from orthogonality  is 2.30D-15 for   1156    249.
 Iteration    1 A^-1*A deviation from unit magnitude is 3.11D-15 for    220.
 Iteration    1 A^-1*A deviation from orthogonality  is 2.57D-15 for   1623    990.
 E= -405.866992692624    
 DIIS: error= 2.42D-02 at cycle   1 NSaved=   1.
 NSaved= 1 IEnMin= 1 EnMin= -405.866992692624     IErMin= 1 ErrMin= 2.42D-02
 ErrMax= 2.42D-02  0.00D+00 EMaxC= 1.00D-01 BMatC= 2.35D-01 BMatP= 2.35D-01
 IDIUse=3 WtCom= 7.58D-01 WtEn= 2.42D-01
 Coeff-Com:  0.100D+01
 Coeff-En:   0.100D+01
 Coeff:      0.100D+01
 Gap=     0.130 Goal=   None    Shift=    0.000
 GapD=    0.130 DampG=1.000 DampE=0.500 DampFc=0.5000 IDamp=-1.
 Damping current iteration by 5.00D-01
 RMSDP=4.07D-03 MaxDP=1.39D-01              OVMax= 2.66D-01

 Cycle   2  Pass 1  IDiag  1:
 RMSU=  2.03D-03    CP:  9.85D-01
 E= -405.905731428092     Delta-E=       -0.038738735469 Rises=F Damp=T
 DIIS: error= 1.24D-02 at cycle   2 NSaved=   2.
 NSaved= 2 IEnMin= 2 EnMin= -405.905731428092     IErMin= 2 ErrMin= 1.24D-02
 ErrMax= 1.24D-02  0.00D+00 EMaxC= 1.00D-01 BMatC= 5.10D-02 BMatP= 2.35D-01
 IDIUse=3 WtCom= 8.76D-01 WtEn= 1.24D-01
 Coeff-Com:  0.267D+00 0.733D+00
 Coeff-En:   0.426D+00 0.574D+00
 Coeff:      0.287D+00 0.713D+00
 Gap=     0.178 Goal=   None    Shift=    0.000
 RMSDP=1.31D-03 MaxDP=4.47D-02 DE=-3.87D-02 OVMax= 3.04D-01

 Cycle   3  Pass 1  IDiag  1:
 RMSU=  9.96D-04    CP:  9.77D-01  5.83D-01
 E= -406.064540527576     Delta-E=       -0.158809099484 Rises=F Damp=F
 DIIS: error= 1.35D-02 at cycle   3 NSaved=   3.
 NSaved= 3 IEnMin= 3 EnMin= -406.064540527576     IErMin= 2 ErrMin= 1.24D-02
 ErrMax= 1.35D-02  0.00D+00 EMaxC= 1.00D-01 BMatC= 3.86D-02 BMatP= 5.10D-02
 IDIUse=3 WtCom= 8.65D-01 WtEn= 1.35D-01
 Coeff-Com:  0.104D+00 0.455D+00 0.441D+00
 Coeff-En:   0.000D+00 0.000D+00 0.100D+01
 Coeff:      0.904D-01 0.394D+00 0.516D+00
 Gap=     0.156 Goal=   None    Shift=    0.000
 RMSDP=9.02D-04 MaxDP=2.35D-02 DE=-1.59D-01 OVMax= 1.10D-01

 Cycle   4  Pass 1  IDiag  1:
 RMSU=  5.93D-04    CP:  9.89D-01  7.38D-01  4.08D-01
 E= -406.089105037967     Delta-E=       -0.024564510391 Rises=F Damp=F
 DIIS: error= 7.54D-03 at cycle   4 NSaved=   4.
 NSaved= 4 IEnMin= 4 EnMin= -406.089105037967     IErMin= 4 ErrMin= 7.54D-03
 ErrMax= 7.54D-03  0.00D+00 EMaxC= 1.00D-01 BMatC= 1.48D-02 BMatP= 3.86D-02
 IDIUse=3 WtCom= 9.25D-01 WtEn= 7.54D-02
 Coeff-Com:  0.286D-01 0.115D+00 0.373D+00 0.483D+00
 Coeff-En:   0.000D+00 0.000D+00 0.332D+00 0.668D+00
 Coeff:      0.264D-01 0.107D+00 0.370D+00 0.497D+00
 Gap=     0.157 Goal=   None    Shift=    0.000
 RMSDP=4.18D-04 MaxDP=9.30D-03 DE=-2.46D-02 OVMax= 4.67D-02

 Cycle   5  Pass 1  IDiag  1:
 RMSU=  1.55D-04    CP:  9.85D-01  6.70D-01  6.16D-01  5.03D-01
 E= -406.104429642062     Delta-E=       -0.015324604095 Rises=F Damp=F
 DIIS: error= 1.01D-03 at cycle   5 NSaved=   5.
 NSaved= 5 IEnMin= 5 EnMin= -406.104429642062     IErMin= 5 ErrMin= 1.01D-03
 ErrMax= 1.01D-03  0.00D+00 EMaxC= 1.00D-01 BMatC= 3.74D-04 BMatP= 1.48D-02
 IDIUse=3 WtCom= 9.90D-01 WtEn= 1.01D-02
 Coeff-Com:  0.606D-02 0.215D-01 0.148D+00 0.257D+00 0.568D+00
 Coeff-En:   0.000D+00 0.000D+00 0.000D+00 0.000D+00 0.100D+01
 Coeff:      0.600D-02 0.213D-01 0.146D+00 0.254D+00 0.572D+00
 Gap=     0.158 Goal=   None    Shift=    0.000
 RMSDP=7.12D-05 MaxDP=1.60D-03 DE=-1.53D-02 OVMax= 7.34D-03

 Cycle   6  Pass 1  IDiag  1:
 RMSU=  4.75D-05    CP:  9.85D-01  6.67D-01  6.12D-01  5.42D-01  6.98D-01
 E= -406.104762999237     Delta-E=       -0.000333357175 Rises=F Damp=F
 DIIS: error= 4.98D-04 at cycle   6 NSaved=   6.
 NSaved= 6 IEnMin= 6 EnMin= -406.104762999237     IErMin= 6 ErrMin= 4.98D-04
 ErrMax= 4.98D-04  0.00D+00 EMaxC= 1.00D-01 BMatC= 4.61D-05 BMatP= 3.74D-04
 IDIUse=3 WtCom= 9.95D-01 WtEn= 4.98D-03
 Coeff-Com:  0.935D-03 0.146D-02 0.466D-01 0.988D-01 0.328D+00 0.524D+00
 Coeff-En:   0.000D+00 0.000D+00 0.000D+00 0.000D+00 0.345D-01 0.966D+00
 Coeff:      0.930D-03 0.145D-02 0.464D-01 0.983D-01 0.326D+00 0.527D+00
 Gap=     0.157 Goal=   None    Shift=    0.000
 RMSDP=2.24D-05 MaxDP=6.79D-04 DE=-3.33D-04 OVMax= 3.65D-03

 Cycle   7  Pass 1  IDiag  1:
 RMSU=  1.37D-05    CP:  9.85D-01  6.70D-01  6.09D-01  5.52D-01  7.20D-01
                    CP:  6.99D-01
 E= -406.104801553715     Delta-E=       -0.000038554478 Rises=F Damp=F
 DIIS: error= 2.36D-04 at cycle   7 NSaved=   7.
 NSaved= 7 IEnMin= 7 EnMin= -406.104801553715     IErMin= 7 ErrMin= 2.36D-04
 ErrMax= 2.36D-04  0.00D+00 EMaxC= 1.00D-01 BMatC= 5.47D-06 BMatP= 4.61D-05
 IDIUse=3 WtCom= 9.98D-01 WtEn= 2.36D-03
 Coeff-Com:  0.349D-03-0.259D-03 0.180D-01 0.413D-01 0.159D+00 0.328D+00
 Coeff-Com:  0.454D+00
 Coeff-En:   0.000D+00 0.000D+00 0.000D+00 0.000D+00 0.000D+00 0.525D-01
 Coeff-En:   0.947D+00
 Coeff:      0.349D-03-0.259D-03 0.179D-01 0.412D-01 0.158D+00 0.327D+00
 Coeff:      0.456D+00
 Gap=     0.157 Goal=   None    Shift=    0.000
 RMSDP=7.53D-06 MaxDP=1.89D-04 DE=-3.86D-05 OVMax= 1.33D-03

 Cycle   8  Pass 1  IDiag  1:
 RMSU=  5.11D-06    CP:  9.85D-01  6.70D-01  6.11D-01  5.51D-01  7.21D-01
                    CP:  6.87D-01  6.27D-01
 E= -406.104806818019     Delta-E=       -0.000005264303 Rises=F Damp=F
 DIIS: error= 3.81D-05 at cycle   8 NSaved=   8.
 NSaved= 8 IEnMin= 8 EnMin= -406.104806818019     IErMin= 8 ErrMin= 3.81D-05
 ErrMax= 3.81D-05  0.00D+00 EMaxC= 1.00D-01 BMatC= 2.73D-07 BMatP= 5.47D-06
 IDIUse=1 WtCom= 1.00D+00 WtEn= 0.00D+00
 Coeff-Com:  0.980D-04-0.363D-03 0.198D-02 0.574D-02 0.296D-01 0.833D-01
 Coeff-Com:  0.222D+00 0.657D+00
 Coeff:      0.980D-04-0.363D-03 0.198D-02 0.574D-02 0.296D-01 0.833D-01
 Coeff:      0.222D+00 0.657D+00
 Gap=     0.157 Goal=   None    Shift=    0.000
 RMSDP=1.89D-06 MaxDP=4.28D-05 DE=-5.26D-06 OVMax= 2.15D-04

 Cycle   9  Pass 1  IDiag  1:
 RMSU=  1.18D-06    CP:  9.85D-01  6.70D-01  6.11D-01  5.51D-01  7.24D-01
                    CP:  6.98D-01  6.69D-01  7.73D-01
 E= -406.104807081493     Delta-E=       -0.000000263475 Rises=F Damp=F
 DIIS: error= 1.02D-05 at cycle   9 NSaved=   9.
 NSaved= 9 IEnMin= 9 EnMin= -406.104807081493     IErMin= 9 ErrMin= 1.02D-05
 ErrMax= 1.02D-05  0.00D+00 EMaxC= 1.00D-01 BMatC= 3.97D-08 BMatP= 2.73D-07
 IDIUse=1 WtCom= 1.00D+00 WtEn= 0.00D+00
 Coeff-Com:  0.528D-04-0.194D-03 0.353D-03 0.144D-02 0.991D-02 0.338D-01
 Coeff-Com:  0.112D+00 0.396D+00 0.447D+00
 Coeff:      0.528D-04-0.194D-03 0.353D-03 0.144D-02 0.991D-02 0.338D-01
 Coeff:      0.112D+00 0.396D+00 0.447D+00
 Gap=     0.157 Goal=   None    Shift=    0.000
 RMSDP=6.96D-07 MaxDP=1.44D-05 DE=-2.63D-07 OVMax= 8.39D-05

 Cycle  10  Pass 1  IDiag  1:
 RMSU=  4.88D-07    CP:  9.85D-01  6.70D-01  6.11D-01  5.51D-01  7.23D-01
                    CP:  7.01D-01  6.68D-01  7.87D-01  6.13D-01
 E= -406.104807107880     Delta-E=       -0.000000026387 Rises=F Damp=F
 DIIS: error= 3.19D-06 at cycle  10 NSaved=  10.
 NSaved=10 IEnMin=10 EnMin= -406.104807107880     IErMin=10 ErrMin= 3.19D-06
 ErrMax= 3.19D-06  0.00D+00 EMaxC= 1.00D-01 BMatC= 1.97D-09 BMatP= 3.97D-08
 IDIUse=1 WtCom= 1.00D+00 WtEn= 0.00D+00
 Coeff-Com:  0.233D-04-0.769D-04 0.383D-04 0.305D-03 0.284D-02 0.112D-01
 Coeff-Com:  0.420D-01 0.157D+00 0.238D+00 0.549D+00
 Coeff:      0.233D-04-0.769D-04 0.383D-04 0.305D-03 0.284D-02 0.112D-01
 Coeff:      0.420D-01 0.157D+00 0.238D+00 0.549D+00
 Gap=     0.157 Goal=   None    Shift=    0.000
 RMSDP=2.16D-07 MaxDP=4.76D-06 DE=-2.64D-08 OVMax= 3.94D-05

 Cycle  11  Pass 1  IDiag  1:
 RMSU=  1.55D-07    CP:  9.85D-01  6.70D-01  6.11D-01  5.51D-01  7.23D-01
                    CP:  7.01D-01  6.71D-01  7.84D-01  6.58D-01  7.29D-01
 E= -406.104807109421     Delta-E=       -0.000000001541 Rises=F Damp=F
 DIIS: error= 1.66D-06 at cycle  11 NSaved=  11.
 NSaved=11 IEnMin=11 EnMin= -406.104807109421     IErMin=11 ErrMin= 1.66D-06
 ErrMax= 1.66D-06  0.00D+00 EMaxC= 1.00D-01 BMatC= 6.04D-10 BMatP= 1.97D-09
 IDIUse=1 WtCom= 1.00D+00 WtEn= 0.00D+00
 Coeff-Com:  0.102D-04-0.279D-04-0.713D-05 0.436D-04 0.733D-03 0.350D-02
 Coeff-Com:  0.148D-01 0.573D-01 0.107D+00 0.385D+00 0.432D+00
 Coeff:      0.102D-04-0.279D-04-0.713D-05 0.436D-04 0.733D-03 0.350D-02
 Coeff:      0.148D-01 0.573D-01 0.107D+00 0.385D+00 0.432D+00
 Gap=     0.157 Goal=   None    Shift=    0.000
 RMSDP=8.76D-08 MaxDP=2.26D-06 DE=-1.54D-09 OVMax= 1.58D-05

 Cycle  12  Pass 1  IDiag  1:
 RMSU=  4.42D-08    CP:  9.85D-01  6.70D-01  6.11D-01  5.51D-01  7.23D-01
                    CP:  7.01D-01  6.71D-01  7.88D-01  6.42D-01  7.68D-01
                    CP:  5.78D-01
 E= -406.104807110079     Delta-E=       -0.000000000658 Rises=F Damp=F
 DIIS: error= 2.05D-07 at cycle  12 NSaved=  12.
 NSaved=12 IEnMin=12 EnMin= -406.104807110079     IErMin=12 ErrMin= 2.05D-07
 ErrMax= 2.05D-07  0.00D+00 EMaxC= 1.00D-01 BMatC= 1.24D-11 BMatP= 6.04D-10
 IDIUse=1 WtCom= 1.00D+00 WtEn= 0.00D+00
 Coeff-Com:  0.350D-05-0.778D-05-0.113D-05 0.805D-05 0.181D-03 0.952D-03
 Coeff-Com:  0.428D-02 0.168D-01 0.347D-01 0.144D+00 0.204D+00 0.595D+00
 Coeff:      0.350D-05-0.778D-05-0.113D-05 0.805D-05 0.181D-03 0.952D-03
 Coeff:      0.428D-02 0.168D-01 0.347D-01 0.144D+00 0.204D+00 0.595D+00
 Gap=     0.157 Goal=   None    Shift=    0.000
 RMSDP=1.75D-08 MaxDP=3.66D-07 DE=-6.58D-10 OVMax= 1.82D-06

 Cycle  13  Pass 1  IDiag  1:
 RMSU=  1.18D-08    CP:  9.85D-01  6.70D-01  6.11D-01  5.51D-01  7.23D-01
                    CP:  7.01D-01  6.71D-01  7.88D-01  6.46D-01  7.77D-01
                    CP:  6.08D-01  7.99D-01
 E= -406.104807110090     Delta-E=       -0.000000000011 Rises=F Damp=F
 DIIS: error= 1.21D-07 at cycle  13 NSaved=  13.
 NSaved=13 IEnMin=13 EnMin= -406.104807110090     IErMin=13 ErrMin= 1.21D-07
 ErrMax= 1.21D-07  0.00D+00 EMaxC= 1.00D-01 BMatC= 3.40D-12 BMatP= 1.24D-11
 IDIUse=1 WtCom= 1.00D+00 WtEn= 0.00D+00
 Coeff-Com:  0.107D-05-0.239D-05-0.114D-05-0.169D-05 0.291D-04 0.215D-03
 Coeff-Com:  0.112D-02 0.455D-02 0.109D-01 0.526D-01 0.870D-01 0.388D+00
 Coeff-Com:  0.456D+00
 Coeff:      0.107D-05-0.239D-05-0.114D-05-0.169D-05 0.291D-04 0.215D-03
 Coeff:      0.112D-02 0.455D-02 0.109D-01 0.526D-01 0.870D-01 0.388D+00
 Coeff:      0.456D+00
 Gap=     0.157 Goal=   None    Shift=    0.000
 RMSDP=5.70D-09 MaxDP=1.78D-07 DE=-1.14D-11 OVMax= 5.33D-07

 Error on total polarization charges =  0.01135
 SCF Done:  E(RB-P86) =  -406.104807110     A.U. after   13 cycles
            NFock= 13  Conv=0.57D-08     -V/T= 2.0044
 KE= 4.043128252307D+02 PE=-1.959002097443D+03 EE= 6.331321920149D+02
 Leave Link  502 at Tue Feb 23 00:12:16 2021, MaxMem=   104857600 cpu:             512.3 elap:              16.4
 (Enter /sw/arch/RedHatEnterpriseServer7/EB_production/2019/software/Gaussian/g16.c01/l601.exe)
 Copying SCF densities to generalized density rwf, IOpCl= 0 IROHF=0.

 **********************************************************************

            Population analysis using the SCF Density.

 **********************************************************************

 Orbital symmetries:
       Occupied  (A) (A) (A) (A) (A) (A) (A) (A) (A) (A) (A) (A)
                 (A) (A) (A) (A) (A) (A) (A) (A) (A) (A) (A) (A)
                 (A) (A) (A) (A) (A) (A) (A) (A) (A) (A) (A) (A)
                 (A)
       Virtual   (A) (A) (A) (A) (A) (A) (A) (A) (A) (A) (A) (A)
                 (A) (A) (A) (A) (A) (A) (A) (A) (A) (A) (A) (A)
                 (A) (A) (A) (A) (A) (A) (A) (A) (A) (A) (A) (A)
                 (A) (A) (A) (A) (A) (A) (A) (A) (A) (A) (A) (A)
                 (A) (A) (A) (A) (A) (A) (A) (A) (A) (A) (A) (A)
                 (A) (A) (A) (A) (A) (A) (A) (A) (A) (A) (A) (A)
                 (A) (A) (A) (A) (A) (A) (A) (A) (A) (A) (A) (A)
                 (A) (A) (A) (A) (A) (A) (A) (A) (A) (A) (A) (A)
                 (A) (A) (A) (A) (A) (A) (A) (A) (A) (A) (A) (A)
                 (A) (A) (A) (A) (A) (A) (A) (A) (A) (A) (A) (A)
                 (A) (A) (A) (A) (A) (A) (A) (A) (A) (A) (A) (A)
                 (A) (A) (A) (A) (A) (A) (A) (A) (A) (A) (A) (A)
                 (A) (A) (A) (A) (A) (A) (A) (A) (A) (A) (A) (A)
                 (A) (A) (A) (A) (A) (A) (A) (A) (A) (A) (A) (A)
                 (A) (A) (A) (A) (A) (A) (A) (A) (A) (A) (A) (A)
                 (A) (A) (A) (A) (A) (A) (A) (A) (A) (A) (A) (A)
                 (A) (A) (A) (A) (A) (A) (A) (A) (A) (A) (A) (A)
                 (A) (A) (A) (A) (A) (A) (A) (A) (A) (A) (A) (A)
                 (A) (A) (A) (A) (A) (A) (A) (A) (A) (A) (A) (A)
                 (A) (A) (A) (A) (A) (A) (A) (A) (A)
 The electronic state is 1-A.
 Alpha  occ. eigenvalues --  -14.14387  -9.99581  -9.99565  -9.96813  -9.95646
 Alpha  occ. eigenvalues --   -9.95302  -9.95233  -9.91771  -9.90370  -9.88886
 Alpha  occ. eigenvalues --   -0.97176  -0.80382  -0.75934  -0.74054  -0.69220
 Alpha  occ. eigenvalues --   -0.64536  -0.63573  -0.60231  -0.54930  -0.52421
 Alpha  occ. eigenvalues --   -0.50702  -0.49021  -0.46897  -0.45588  -0.44540
 Alpha  occ. eigenvalues --   -0.42542  -0.39716  -0.38491  -0.38123  -0.37783
 Alpha  occ. eigenvalues --   -0.35783  -0.34237  -0.32674  -0.30761  -0.30246
 Alpha  occ. eigenvalues --   -0.29717  -0.29181
 Alpha virt. eigenvalues --   -0.13449  -0.10357   0.01529   0.02138   0.03518
 Alpha virt. eigenvalues --    0.04075   0.04428   0.05242   0.06387   0.07464
 Alpha virt. eigenvalues --    0.07977   0.08318   0.08868   0.09101   0.10148
 Alpha virt. eigenvalues --    0.10743   0.11865   0.12375   0.12641   0.13755
 Alpha virt. eigenvalues --    0.14007   0.16084   0.17271   0.17414   0.18320
 Alpha virt. eigenvalues --    0.18690   0.18761   0.20035   0.20351   0.20858
 Alpha virt. eigenvalues --    0.21682   0.21942   0.22902   0.24070   0.25016
 Alpha virt. eigenvalues --    0.26161   0.27346   0.28834   0.29293   0.30626
 Alpha virt. eigenvalues --    0.31305   0.32596   0.33092   0.33894   0.35543
 Alpha virt. eigenvalues --    0.37007   0.37571   0.38291   0.38741   0.39992
 Alpha virt. eigenvalues --    0.40496   0.40928   0.41002   0.41367   0.42128
 Alpha virt. eigenvalues --    0.42580   0.42959   0.43632   0.43778   0.44756
 Alpha virt. eigenvalues --    0.45256   0.45993   0.46551   0.47068   0.47259
 Alpha virt. eigenvalues --    0.48996   0.50271   0.51539   0.53690   0.56389
 Alpha virt. eigenvalues --    0.57997   0.58820   0.59753   0.61523   0.64098
 Alpha virt. eigenvalues --    0.65541   0.67704   0.69509   0.71971   0.74609
 Alpha virt. eigenvalues --    0.77772   1.02217   1.07918   1.09402   1.12183
 Alpha virt. eigenvalues --    1.12535   1.15017   1.15415   1.17115   1.17629
 Alpha virt. eigenvalues --    1.18664   1.19219   1.19786   1.20298   1.21323
 Alpha virt. eigenvalues --    1.21957   1.23114   1.24664   1.25313   1.27981
 Alpha virt. eigenvalues --    1.28645   1.29694   1.29894   1.31559   1.33236
 Alpha virt. eigenvalues --    1.34084   1.34479   1.34752   1.35709   1.36356
 Alpha virt. eigenvalues --    1.37569   1.38123   1.38903   1.40346   1.41138
 Alpha virt. eigenvalues --    1.42552   1.43535   1.43861   1.46050   1.47175
 Alpha virt. eigenvalues --    1.47639   1.48856   1.52680   1.54401   1.55975
 Alpha virt. eigenvalues --    1.57682   1.60457   1.61927   1.62726   1.65425
 Alpha virt. eigenvalues --    1.67037   1.68080   1.69374   1.70324   1.71101
 Alpha virt. eigenvalues --    1.72282   1.73129   1.73638   1.74075   1.74728
 Alpha virt. eigenvalues --    1.75890   1.77549   1.77801   1.77884   1.78908
 Alpha virt. eigenvalues --    1.79764   1.81447   1.81856   1.82774   1.83434
 Alpha virt. eigenvalues --    1.85910   1.90220   1.91109   1.92137   1.94137
 Alpha virt. eigenvalues --    1.94192   1.94641   1.98092   2.04946   2.05969
 Alpha virt. eigenvalues --    2.11665   2.13181   2.13584   2.15276   2.16263
 Alpha virt. eigenvalues --    2.17317   2.20182   2.24199   2.25442   2.27550
 Alpha virt. eigenvalues --    2.28209   2.28996   2.31261   2.32489   2.33955
 Alpha virt. eigenvalues --    2.36151   2.36623   2.38985   2.41065   2.42820
 Alpha virt. eigenvalues --    2.43846   2.44108   2.46629   2.46975   2.49006
 Alpha virt. eigenvalues --    2.51056   2.51611   2.52709   2.53949   2.57678
 Alpha virt. eigenvalues --    2.58384   2.58528   2.60019   2.61394   2.62083
 Alpha virt. eigenvalues --    2.64115   2.65901   2.67875   2.70339   2.72657
 Alpha virt. eigenvalues --    2.73989   2.77516   2.79667   2.85426   2.91370
 Alpha virt. eigenvalues --    2.98140   3.00890   3.02332   3.03251   3.06622
 Alpha virt. eigenvalues --    3.08217   3.09020   3.18686   3.21070   3.21938
 Alpha virt. eigenvalues --    3.23831   3.24160   3.28610   3.30157   3.30779
 Alpha virt. eigenvalues --    3.32552   3.33373   3.37195   3.37534   3.56059
 Alpha virt. eigenvalues --    3.64241   3.76948  21.33084  21.61489  21.69139
 Alpha virt. eigenvalues --   21.75629  21.78556  21.82080  21.83719  21.87504
 Alpha virt. eigenvalues --   21.93355  31.56019
          Condensed to atoms (all electrons):
               1          2          3          4          5          6
     1  C    5.049195   0.251203  -0.048999   0.013615  -0.000109  -0.000569
     2  C    0.251203   5.253731   0.173291  -0.053702   0.012697  -0.005257
     3  C   -0.048999   0.173291   5.356444   0.211170  -0.038988  -0.008232
     4  C    0.013615  -0.053702   0.211170   5.236026   0.172649  -0.051355
     5  N   -0.000109   0.012697  -0.038988   0.172649   6.209706   0.437223
     6  C   -0.000569  -0.005257  -0.008232  -0.051355   0.437223   4.967431
     7  C   -0.000044  -0.000791   0.004947   0.007735  -0.053685   0.412413
     8  C    0.000016   0.000252  -0.001443  -0.000346  -0.011344  -0.003626
     9  C   -0.000083  -0.000770  -0.000912   0.009735  -0.044795  -0.091121
    10  C   -0.000241   0.005543  -0.015231  -0.040134   0.436945  -0.039566
    11  H    0.400872  -0.039485   0.011353  -0.000685   0.000040   0.000024
    12  H    0.399376  -0.030808  -0.010771   0.001008  -0.000172   0.000039
    13  H    0.420013  -0.050135  -0.005105  -0.001861   0.000127   0.000013
    14  H   -0.023456   0.396210  -0.020531  -0.028033   0.011127   0.002552
    15  H   -0.047535   0.423285  -0.063656   0.017871  -0.004698   0.000219
    16  H   -0.005028  -0.051191   0.414960  -0.025458  -0.011940   0.004469
    17  H    0.000463  -0.036505   0.417509  -0.045686   0.007679   0.000883
    18  H   -0.000710   0.014016  -0.059858   0.423362  -0.024878  -0.009346
    19  H   -0.000372  -0.016473  -0.024686   0.400358  -0.025789   0.009416
    20  H   -0.000051  -0.000560  -0.002716  -0.002839  -0.029555   0.417329
    21  H   -0.000001  -0.000033   0.000125  -0.000166   0.002753  -0.031279
    22  H    0.000000   0.000003  -0.000004   0.000014  -0.000708   0.013165
    23  H   -0.000001  -0.000019   0.000010  -0.000205   0.003045   0.000944
    24  H   -0.000126   0.000729  -0.001730  -0.007598  -0.029801   0.009779
               7          8          9         10         11         12
     1  C   -0.000044   0.000016  -0.000083  -0.000241   0.400872   0.399376
     2  C   -0.000791   0.000252  -0.000770   0.005543  -0.039485  -0.030808
     3  C    0.004947  -0.001443  -0.000912  -0.015231   0.011353  -0.010771
     4  C    0.007735  -0.000346   0.009735  -0.040134  -0.000685   0.001008
     5  N   -0.053685  -0.011344  -0.044795   0.436945   0.000040  -0.000172
     6  C    0.412413  -0.003626  -0.091121  -0.039566   0.000024   0.000039
     7  C    4.984548   0.415447   0.047279  -0.113188  -0.000003   0.000022
     8  C    0.415447   4.909867   0.408855   0.011272   0.000000  -0.000002
     9  C    0.047279   0.408855   5.033017   0.358792  -0.000005  -0.000002
    10  C   -0.113188   0.011272   0.358792   5.002773   0.000018   0.000001
    11  H   -0.000003   0.000000  -0.000005   0.000018   0.535923  -0.023865
    12  H    0.000022  -0.000002  -0.000002   0.000001  -0.023865   0.557545
    13  H    0.000001  -0.000001   0.000005  -0.000007  -0.025402  -0.030969
    14  H    0.000206  -0.000553   0.001014  -0.004186  -0.003471  -0.007216
    15  H    0.000133  -0.000034  -0.000037  -0.000646  -0.002923   0.008171
    16  H    0.001339  -0.000245   0.000476  -0.000318  -0.000195   0.004998
    17  H   -0.000097   0.000012   0.000032   0.000110  -0.000148  -0.000792
    18  H    0.000484   0.000061  -0.000915   0.003540   0.000021   0.000030
    19  H    0.000160  -0.000694   0.004615  -0.011605  -0.000014  -0.000024
    20  H   -0.035997   0.008507  -0.002918   0.009804   0.000002  -0.000030
    21  H    0.403036  -0.028152   0.006702   0.000925  -0.000000   0.000000
    22  H   -0.053217   0.437811  -0.053683   0.013811  -0.000000  -0.000000
    23  H    0.007081  -0.029222   0.405290  -0.032412   0.000000  -0.000000
    24  H   -0.003070   0.009055  -0.035986   0.418267   0.000003   0.000004
              13         14         15         16         17         18
     1  C    0.420013  -0.023456  -0.047535  -0.005028   0.000463  -0.000710
     2  C   -0.050135   0.396210   0.423285  -0.051191  -0.036505   0.014016
     3  C   -0.005105  -0.020531  -0.063656   0.414960   0.417509  -0.059858
     4  C   -0.001861  -0.028033   0.017871  -0.025458  -0.045686   0.423362
     5  N    0.000127   0.011127  -0.004698  -0.011940   0.007679  -0.024878
     6  C    0.000013   0.002552   0.000219   0.004469   0.000883  -0.009346
     7  C    0.000001   0.000206   0.000133   0.001339  -0.000097   0.000484
     8  C   -0.000001  -0.000553  -0.000034  -0.000245   0.000012   0.000061
     9  C    0.000005   0.001014  -0.000037   0.000476   0.000032  -0.000915
    10  C   -0.000007  -0.004186  -0.000646  -0.000318   0.000110   0.003540
    11  H   -0.025402  -0.003471  -0.002923  -0.000195  -0.000148   0.000021
    12  H   -0.030969  -0.007216   0.008171   0.004998  -0.000792   0.000030
    13  H    0.550816   0.007866  -0.006729  -0.000413   0.005589  -0.000028
    14  H    0.007866   0.549796  -0.029629  -0.004234   0.005704  -0.000383
    15  H   -0.006729  -0.029629   0.558199   0.007456  -0.003607   0.000083
    16  H   -0.000413  -0.004234   0.007456   0.510441  -0.018322  -0.001798
    17  H    0.005589   0.005704  -0.003607  -0.018322   0.495745  -0.002417
    18  H   -0.000028  -0.000383   0.000083  -0.001798  -0.002417   0.463904
    19  H    0.000189   0.001233   0.002308   0.004712  -0.001308  -0.018935
    20  H    0.000003   0.000172  -0.000054   0.000532   0.000144  -0.002092
    21  H    0.000000  -0.000005   0.000001   0.000049  -0.000002   0.000018
    22  H   -0.000000  -0.000012  -0.000000  -0.000001  -0.000000  -0.000000
    23  H    0.000000   0.000007  -0.000004   0.000002  -0.000001   0.000005
    24  H    0.000000  -0.000119   0.000450  -0.000032  -0.000016   0.000526
              19         20         21         22         23         24
     1  C   -0.000372  -0.000051  -0.000001   0.000000  -0.000001  -0.000126
     2  C   -0.016473  -0.000560  -0.000033   0.000003  -0.000019   0.000729
     3  C   -0.024686  -0.002716   0.000125  -0.000004   0.000010  -0.001730
     4  C    0.400358  -0.002839  -0.000166   0.000014  -0.000205  -0.007598
     5  N   -0.025789  -0.029555   0.002753  -0.000708   0.003045  -0.029801
     6  C    0.009416   0.417329  -0.031279   0.013165   0.000944   0.009779
     7  C    0.000160  -0.035997   0.403036  -0.053217   0.007081  -0.003070
     8  C   -0.000694   0.008507  -0.028152   0.437811  -0.029222   0.009055
     9  C    0.004615  -0.002918   0.006702  -0.053683   0.405290  -0.035986
    10  C   -0.011605   0.009804   0.000925   0.013811  -0.032412   0.418267
    11  H   -0.000014   0.000002  -0.000000  -0.000000   0.000000   0.000003
    12  H   -0.000024  -0.000030   0.000000  -0.000000  -0.000000   0.000004
    13  H    0.000189   0.000003   0.000000  -0.000000   0.000000   0.000000
    14  H    0.001233   0.000172  -0.000005  -0.000012   0.000007  -0.000119
    15  H    0.002308  -0.000054   0.000001  -0.000000  -0.000004   0.000450
    16  H    0.004712   0.000532   0.000049  -0.000001   0.000002  -0.000032
    17  H   -0.001308   0.000144  -0.000002  -0.000000  -0.000001  -0.000016
    18  H   -0.018935  -0.002092   0.000018  -0.000000   0.000005   0.000526
    19  H    0.481060   0.000384   0.000010  -0.000004   0.000078  -0.001487
    20  H    0.000384   0.449877  -0.001212  -0.000105   0.000015   0.000126
    21  H    0.000010  -0.001212   0.447266  -0.004989  -0.000216   0.000016
    22  H   -0.000004  -0.000105  -0.004989   0.475553  -0.005073  -0.000109
    23  H    0.000078   0.000015  -0.000216  -0.005073   0.447462  -0.001596
    24  H   -0.001487   0.000126   0.000016  -0.000109  -0.001596   0.455906
 Mulliken charges:
               1
     1  C   -0.407430
     2  C   -0.245232
     3  C   -0.286947
     4  C   -0.235477
     5  N   -0.017530
     6  C   -0.035549
     7  C   -0.024736
     8  C   -0.125494
     9  C   -0.044583
    10  C   -0.004268
    11  H    0.147940
    12  H    0.133455
    13  H    0.136027
    14  H    0.145944
    15  H    0.141373
    16  H    0.169741
    17  H    0.175030
    18  H    0.215310
    19  H    0.196868
    20  H    0.191238
    21  H    0.205152
    22  H    0.177546
    23  H    0.204810
    24  H    0.186812
 Sum of Mulliken charges =   1.00000
 Mulliken charges with hydrogens summed into heavy atoms:
               1
     1  C    0.009993
     2  C    0.042086
     3  C    0.057823
     4  C    0.176701
     5  N   -0.017530
     6  C    0.155689
     7  C    0.180416
     8  C    0.052052
     9  C    0.160227
    10  C    0.182543
 Electronic spatial extent (au):  <R**2>=           1842.0658
 Charge=              1.0000 electrons
 Dipole moment (field-independent basis, Debye):
    X=              4.5343    Y=              0.8938    Z=              1.0955  Tot=              4.7496
 Quadrupole moment (field-independent basis, Debye-Ang):
   XX=            -39.7262   YY=            -50.5562   ZZ=            -51.1534
   XY=             -4.6547   XZ=             -5.7780   YZ=             -3.8259
 Traceless Quadrupole moment (field-independent basis, Debye-Ang):
   XX=              7.4191   YY=             -3.4109   ZZ=             -4.0081
   XY=             -4.6547   XZ=             -5.7780   YZ=             -3.8259
 Octapole moment (field-independent basis, Debye-Ang**2):
  XXX=             49.7057  YYY=              4.9024  ZZZ=              6.9424  XYY=             11.8212
  XXY=            -12.7533  XXZ=            -11.8165  XZZ=              9.5469  YZZ=              2.9883
  YYZ=              2.9427  XYZ=             -9.0615
 Hexadecapole moment (field-independent basis, Debye-Ang**3):
 XXXX=          -1649.7501 YYYY=           -326.9844 ZZZZ=           -303.7901 XXXY=            -60.1520
 XXXZ=            -79.6188 YYYX=            -16.6438 YYYZ=            -12.5087 ZZZX=            -23.5198
 ZZZY=            -15.9295 XXYY=           -327.4440 XXZZ=           -327.1835 YYZZ=            -96.8452
 XXYZ=            -10.0992 YYXZ=             -1.4593 ZZXY=             -1.7213
 N-N= 5.154522730869D+02 E-N=-1.959002089067D+03  KE= 4.043128252307D+02
 No NMR shielding tensors so no spin-rotation constants.
 Leave Link  601 at Tue Feb 23 00:12:17 2021, MaxMem=   104857600 cpu:               6.7 elap:               0.3
 (Enter /sw/arch/RedHatEnterpriseServer7/EB_production/2019/software/Gaussian/g16.c01/l701.exe)
 ... and contract with generalized density number  0.
 Compute integral first derivatives.
 R6Disp: Adding Grimme-D3 dispersion energy 1st derivatives to the gradient.
 PrsmSu:  requested number of processors reduced to:  28 ShMem   1 Linda.
 D1PCM: PCM CHGder 1st derivatives, ID1Alg=3 FixD1E=F DoIter=F DoCFld=F I1PDM=0.
 GePol: Maximum number of non-zero 1st derivatives   =     222
 CoulSu:  requested number of processors reduced to:  29 ShMem   1 Linda.
 CoulSu:  requested number of processors reduced to:  29 ShMem   1 Linda.
 Leave Link  701 at Tue Feb 23 00:12:18 2021, MaxMem=   104857600 cpu:              30.1 elap:               1.1
 (Enter /sw/arch/RedHatEnterpriseServer7/EB_production/2019/software/Gaussian/g16.c01/l702.exe)
 L702 exits ... SP integral derivatives will be done elsewhere.
 Leave Link  702 at Tue Feb 23 00:12:18 2021, MaxMem=   104857600 cpu:               0.8 elap:               0.1
 (Enter /sw/arch/RedHatEnterpriseServer7/EB_production/2019/software/Gaussian/g16.c01/l703.exe)
 Integral derivatives from FoFJK, PRISM(SPDF).
 Compute integral first derivatives, UseDBF=F ICtDFT=           0.
 Calling FoFJK, ICntrl=      2527 FMM=F ISym2X=0 I1Cent= 0 IOpClX= 0 NMat=1 NMatS=1 NMatT=0.
 FoFJK:  IHMeth= 1 ICntrl=    2527 DoSepK=F KAlg= 0 I1Cent=           0 FoldK=F
 IRaf=         0 NMat=       1 IRICut=       1 DoRegI=T DoRafI=F ISym2E= 0 IDoP0=0 IntGTp=1.
 FoFCou: FMM=F IPFlag=           0 FMFlag=      100000 FMFlg1=         800
         NFxFlg=           0 DoJE=F BraDBF=F KetDBF=F FulRan=T
         wScrn=  0.000000 ICntrl=      2527 IOpCl=  0 I1Cent=           0 NGrid=           0
         NMat0=    1 NMatS0=      1 NMatT0=    0 NMatD0=    1 NMtDS0=    0 NMtDT0=    0
 Symmetry not used in FoFCou.
 Leave Link  703 at Tue Feb 23 00:12:20 2021, MaxMem=   104857600 cpu:              73.5 elap:               2.3
 (Enter /sw/arch/RedHatEnterpriseServer7/EB_production/2019/software/Gaussian/g16.c01/l716.exe)
 Dipole        = 1.78394743D+00 3.51648883D-01 4.30984466D-01
 ***** Axes restored to original set *****
 -------------------------------------------------------------------
 Center     Atomic                   Forces (Hartrees/Bohr)
 Number     Number              X              Y              Z
 -------------------------------------------------------------------
      1        6           0.007469330    0.003375646    0.010653932
      2        6          -0.009845509    0.007269647   -0.000600222
      3        6           0.014512321   -0.008004420   -0.005557164
      4        6          -0.035832685   -0.005809334   -0.004129362
      5        7           0.029709429    0.003460733   -0.001054278
      6        6           0.054730315   -0.030208371    0.008997155
      7        6          -0.019766263   -0.062456567    0.024695908
      8        6          -0.055099166   -0.015390372    0.007534452
      9        6          -0.051486810    0.043908196   -0.014891351
     10        6           0.027907518    0.052648440   -0.023892239
     11        1           0.001361815   -0.003560508   -0.003840821
     12        1          -0.001697666    0.004310698   -0.003616318
     13        1          -0.005854626   -0.001109897    0.000574615
     14        1           0.005809512   -0.000156696    0.000121125
     15        1           0.002981161   -0.004452609    0.004176096
     16        1          -0.001165208    0.005366102   -0.002599555
     17        1          -0.003567111    0.000487844    0.004473764
     18        1           0.001826944    0.003520267    0.001098895
     19        1           0.009233688   -0.001136947    0.001043892
     20        1          -0.044104683    0.026493112   -0.008427046
     21        1           0.008435113    0.049225782   -0.019271600
     22        1           0.051805140    0.013641558   -0.007189960
     23        1           0.035419689   -0.037308424    0.013369801
     24        1          -0.022782247   -0.044113881    0.018330278
 -------------------------------------------------------------------
 Cartesian Forces:  Max     0.062456567 RMS     0.023122456
 Leave Link  716 at Tue Feb 23 00:12:21 2021, MaxMem=   104857600 cpu:               0.7 elap:               0.0
 (Enter /sw/arch/RedHatEnterpriseServer7/EB_production/2019/software/Gaussian/g16.c01/l103.exe)

 GradGradGradGradGradGradGradGradGradGradGradGradGradGradGradGradGradGrad
 Berny optimization.
 FormGI is forming the generalized inverse of G from B-inverse, IUseBI=4.
 Internal  Forces:  Max     0.054051194 RMS     0.011552700
 Search for a local minimum.
 Step number   1 out of a maximum of  133
 All quantities printed in internal units (Hartrees-Bohrs-Radians)
 RMS Force = .11553D-01 SwitMx=.10000D-02 MixMth= 1
 Mixed Optimization -- RFO/linear search
 Second derivative matrix not updated -- first step.
 ITU=  0
     Eigenvalues ---    0.00230   0.00230   0.00230   0.01032   0.01632
     Eigenvalues ---    0.02010   0.02013   0.02017   0.02019   0.02025
     Eigenvalues ---    0.02027   0.02038   0.02040   0.03349   0.03451
     Eigenvalues ---    0.03967   0.04738   0.04775   0.05462   0.05501
     Eigenvalues ---    0.05608   0.08277   0.08419   0.09673   0.12177
     Eigenvalues ---    0.12284   0.13058   0.16000   0.16000   0.16000
     Eigenvalues ---    0.16000   0.16000   0.16000   0.16000   0.16000
     Eigenvalues ---    0.21943   0.21957   0.21987   0.22000   0.22000
     Eigenvalues ---    0.23496   0.24998   0.27171   0.27391   0.27952
     Eigenvalues ---    0.34124   0.34147   0.34344   0.34406   0.34468
     Eigenvalues ---    0.34487   0.34620   0.34636   0.34650   0.38262
     Eigenvalues ---    0.40866   0.42268   0.43596   0.43707   0.43888
     Eigenvalues ---    0.43924   0.43989   0.44494   0.44913   0.48680
     Eigenvalues ---    0.49731
 RFO step:  Lambda=-3.78092651D-02 EMin= 2.30000000D-03
 Linear search not attempted -- first point.
 Maximum step size (   0.300) exceeded in Quadratic search.
    -- Step size scaled by   0.987
 Iteration  1 RMS(Cart)=  0.05553245 RMS(Int)=  0.00100689
 Iteration  2 RMS(Cart)=  0.00121256 RMS(Int)=  0.00020900
 Iteration  3 RMS(Cart)=  0.00000235 RMS(Int)=  0.00020899
 Iteration  4 RMS(Cart)=  0.00000000 RMS(Int)=  0.00020899
 ITry= 1 IFail=0 DXMaxC= 2.08D-01 DCOld= 1.00D+10 DXMaxT= 3.00D-01 DXLimC= 3.00D+00 Rises=F
 Variable       Old X    -DE/DX   Delta X   Delta X   Delta X     New X
                                 (Linear)    (Quad)   (Total)
    R1        2.92244  -0.00425   0.00000  -0.01322  -0.01322   2.90922
    R2        2.06247   0.00530   0.00000   0.01361   0.01361   2.07607
    R3        2.06296   0.00571   0.00000   0.01468   0.01468   2.07764
    R4        2.06270   0.00582   0.00000   0.01497   0.01497   2.07767
    R5        2.93489  -0.00846   0.00000  -0.02681  -0.02681   2.90808
    R6        2.06753   0.00520   0.00000   0.01347   0.01347   2.08100
    R7        2.06547   0.00620   0.00000   0.01601   0.01601   2.08148
    R8        2.93987  -0.00883   0.00000  -0.02818  -0.02818   2.91170
    R9        2.06515   0.00595   0.00000   0.01536   0.01536   2.08052
   R10        2.06651   0.00436   0.00000   0.01127   0.01127   2.07778
   R11        2.73986   0.01442   0.00000   0.03386   0.03386   2.77372
   R12        2.07082   0.00231   0.00000   0.00600   0.00600   2.07682
   R13        2.07121   0.00065   0.00000   0.00171   0.00171   2.07292
   R14        2.59618  -0.01512   0.00000  -0.02862  -0.02859   2.56759
   R15        2.59622  -0.01646   0.00000  -0.03106  -0.03103   2.56518
   R16        2.65833  -0.01674   0.00000  -0.03424  -0.03424   2.62409
   R17        1.93641   0.05092   0.00000   0.10612   0.10612   2.04253
   R18        2.65320  -0.00417   0.00000  -0.00737  -0.00739   2.64580
   R19        1.93167   0.05341   0.00000   0.11039   0.11039   2.04206
   R20        2.65214  -0.00490   0.00000  -0.00882  -0.00885   2.64329
   R21        1.93289   0.05405   0.00000   0.11195   0.11195   2.04484
   R22        2.65902  -0.01558   0.00000  -0.03190  -0.03190   2.62711
   R23        1.93246   0.05301   0.00000   0.10972   0.10972   2.04218
   R24        1.93507   0.05156   0.00000   0.10719   0.10719   2.04226
    A1        1.91824   0.00123   0.00000   0.00712   0.00709   1.92533
    A2        1.93176   0.00110   0.00000   0.00482   0.00480   1.93657
    A3        1.92719   0.00116   0.00000   0.00554   0.00552   1.93271
    A4        1.89331  -0.00108   0.00000  -0.00489  -0.00491   1.88840
    A5        1.89042  -0.00092   0.00000  -0.00322  -0.00325   1.88717
    A6        1.90206  -0.00161   0.00000  -0.00984  -0.00985   1.89222
    A7        1.97393  -0.00498   0.00000  -0.01744  -0.01739   1.95654
    A8        1.89530   0.00202   0.00000   0.00990   0.00986   1.90516
    A9        1.88981   0.00305   0.00000   0.01776   0.01774   1.90755
   A10        1.90854   0.00133   0.00000   0.00273   0.00278   1.91131
   A11        1.90501   0.00066   0.00000   0.00012   0.00021   1.90523
   A12        1.88946  -0.00200   0.00000  -0.01304  -0.01313   1.87633
   A13        1.98475  -0.00311   0.00000  -0.01227  -0.01224   1.97251
   A14        1.90770   0.00099   0.00000   0.00772   0.00769   1.91539
   A15        1.89979   0.00332   0.00000   0.01872   0.01855   1.91834
   A16        1.91230   0.00144   0.00000   0.00585   0.00591   1.91821
   A17        1.88515  -0.00190   0.00000  -0.01833  -0.01825   1.86690
   A18        1.87064  -0.00063   0.00000  -0.00133  -0.00145   1.86919
   A19        1.99356  -0.00651   0.00000  -0.02948  -0.02944   1.96412
   A20        1.89735   0.00344   0.00000   0.02542   0.02498   1.92232
   A21        1.87634   0.00716   0.00000   0.03738   0.03620   1.91255
   A22        1.89742   0.00103   0.00000  -0.00054  -0.00017   1.89725
   A23        1.94681  -0.00502   0.00000  -0.04704  -0.04674   1.90006
   A24        1.84617   0.00061   0.00000   0.01964   0.01856   1.86473
   A25        2.09071  -0.00307   0.00000  -0.00875  -0.00881   2.08190
   A26        2.10373  -0.00245   0.00000  -0.00664  -0.00670   2.09703
   A27        2.08869   0.00553   0.00000   0.01554   0.01557   2.10425
   A28        2.11522  -0.00129   0.00000  -0.00675  -0.00671   2.10850
   A29        2.10811  -0.01026   0.00000  -0.05106  -0.05108   2.05703
   A30        2.05985   0.01155   0.00000   0.05781   0.05779   2.11765
   A31        2.08056   0.00020   0.00000   0.00312   0.00310   2.08366
   A32        2.10360  -0.00382   0.00000  -0.02013  -0.02012   2.08348
   A33        2.09902   0.00362   0.00000   0.01701   0.01702   2.11605
   A34        2.08618  -0.00330   0.00000  -0.00812  -0.00817   2.07801
   A35        2.10039   0.00140   0.00000   0.00282   0.00284   2.10323
   A36        2.09661   0.00190   0.00000   0.00531   0.00533   2.10194
   A37        2.08094  -0.00007   0.00000   0.00214   0.00211   2.08305
   A38        2.10047   0.00354   0.00000   0.01643   0.01644   2.11691
   A39        2.10177  -0.00347   0.00000  -0.01856  -0.01855   2.08323
   A40        2.11473  -0.00107   0.00000  -0.00588  -0.00585   2.10887
   A41        2.11139  -0.01097   0.00000  -0.05447  -0.05449   2.05690
   A42        2.05707   0.01204   0.00000   0.06035   0.06034   2.11741
    D1       -3.13261  -0.00009   0.00000  -0.00267  -0.00266  -3.13526
    D2        1.02879   0.00006   0.00000  -0.00168  -0.00164   1.02715
    D3       -1.01913  -0.00034   0.00000  -0.00134  -0.00140  -1.02053
    D4        1.05962  -0.00024   0.00000  -0.00422  -0.00421   1.05541
    D5       -1.06218  -0.00008   0.00000  -0.00322  -0.00319  -1.06537
    D6       -3.11009  -0.00048   0.00000  -0.00289  -0.00295  -3.11304
    D7       -1.04811   0.00028   0.00000   0.00131   0.00133  -1.04677
    D8        3.11329   0.00044   0.00000   0.00230   0.00235   3.11564
    D9        1.06537   0.00004   0.00000   0.00264   0.00259   1.06796
   D10        3.02860  -0.00038   0.00000  -0.00041  -0.00045   3.02815
   D11       -1.11160   0.00006   0.00000   0.00438   0.00433  -1.10727
   D12        0.92627   0.00173   0.00000   0.01766   0.01775   0.94402
   D13       -1.14027  -0.00018   0.00000   0.00250   0.00247  -1.13780
   D14        1.00272   0.00026   0.00000   0.00729   0.00725   1.00997
   D15        3.04059   0.00192   0.00000   0.02058   0.02067   3.06126
   D16        0.92375  -0.00144   0.00000  -0.01161  -0.01166   0.91208
   D17        3.06673  -0.00100   0.00000  -0.00682  -0.00688   3.05985
   D18       -1.17858   0.00066   0.00000   0.00646   0.00654  -1.17204
   D19        1.04914  -0.00190   0.00000  -0.01598  -0.01616   1.03298
   D20       -3.11192  -0.00243   0.00000  -0.01784  -0.01831  -3.13022
   D21       -1.12102   0.00365   0.00000   0.03684   0.03733  -1.08370
   D22       -1.09132  -0.00207   0.00000  -0.02178  -0.02191  -1.11322
   D23        1.03081  -0.00261   0.00000  -0.02363  -0.02405   1.00676
   D24        3.02170   0.00347   0.00000   0.03105   0.03159   3.05329
   D25       -3.12350  -0.00104   0.00000  -0.01311  -0.01318  -3.13667
   D26       -1.00137  -0.00157   0.00000  -0.01496  -0.01532  -1.01669
   D27        0.98952   0.00451   0.00000   0.03972   0.04032   1.02984
   D28        1.19206  -0.00005   0.00000   0.00694   0.00661   1.19867
   D29       -1.96163   0.00080   0.00000   0.02187   0.02142  -1.94020
   D30       -0.93003  -0.00084   0.00000  -0.00550  -0.00551  -0.93554
   D31        2.19947   0.00001   0.00000   0.00943   0.00930   2.20878
   D32       -2.95908   0.00067   0.00000  -0.00217  -0.00165  -2.96073
   D33        0.17042   0.00152   0.00000   0.01276   0.01316   0.18358
   D34        3.13093   0.00065   0.00000   0.01176   0.01179  -3.14047
   D35       -0.00630   0.00060   0.00000   0.01121   0.01125   0.00495
   D36        0.00132  -0.00014   0.00000  -0.00289  -0.00293  -0.00161
   D37       -3.13591  -0.00019   0.00000  -0.00344  -0.00347  -3.13937
   D38       -3.13870  -0.00054   0.00000  -0.00966  -0.00970   3.13478
   D39        0.00398  -0.00052   0.00000  -0.00943  -0.00949  -0.00551
   D40       -0.00919   0.00025   0.00000   0.00508   0.00513  -0.00406
   D41        3.13349   0.00027   0.00000   0.00531   0.00534   3.13884
   D42        0.00302   0.00002   0.00000   0.00058   0.00059   0.00361
   D43       -3.13822   0.00005   0.00000   0.00090   0.00090  -3.13732
   D44        3.14037   0.00002   0.00000   0.00086   0.00087   3.14124
   D45       -0.00087   0.00005   0.00000   0.00117   0.00118   0.00031
   D46        0.00044  -0.00004   0.00000  -0.00045  -0.00045  -0.00001
   D47       -3.13750  -0.00004   0.00000  -0.00071  -0.00071  -3.13821
   D48       -3.14151  -0.00006   0.00000  -0.00077  -0.00077   3.14091
   D49        0.00374  -0.00007   0.00000  -0.00104  -0.00104   0.00271
   D50       -0.00799   0.00016   0.00000   0.00254   0.00254  -0.00545
   D51        3.13525   0.00010   0.00000   0.00152   0.00151   3.13675
   D52        3.12995   0.00016   0.00000   0.00280   0.00280   3.13275
   D53       -0.00999   0.00010   0.00000   0.00177   0.00177  -0.00823
   D54        0.01255  -0.00028   0.00000  -0.00497  -0.00497   0.00758
   D55       -3.13010  -0.00031   0.00000  -0.00526  -0.00526  -3.13536
   D56       -3.13069  -0.00022   0.00000  -0.00391  -0.00392  -3.13461
   D57        0.00984  -0.00025   0.00000  -0.00420  -0.00421   0.00563
         Item               Value     Threshold  Converged?
 Maximum Force            0.054051     0.000450     NO 
 RMS     Force            0.011553     0.000300     NO 
 Maximum Displacement     0.208147     0.001800     NO 
 RMS     Displacement     0.055980     0.001200     NO 
 Predicted change in Energy=-2.077515D-02
 Lowest energy point so far.  Saving SCF results.
 GradGradGradGradGradGradGradGradGradGradGradGradGradGradGradGradGradGrad

 Leave Link  103 at Tue Feb 23 00:12:21 2021, MaxMem=   104857600 cpu:               1.5 elap:               0.1
 (Enter /sw/arch/RedHatEnterpriseServer7/EB_production/2019/software/Gaussian/g16.c01/l202.exe)
                          Input orientation:                          
 ---------------------------------------------------------------------
 Center     Atomic      Atomic             Coordinates (Angstroms)
 Number     Number       Type             X           Y           Z
 ---------------------------------------------------------------------
      1          6           0       -3.066095   -0.875027   -3.180640
      2          6           0       -2.184870   -0.623565   -1.943607
[...]
    8      C8      14.09  -0.052   -2.49    1.65   -1.03
    9      C9      14.03  -0.048   -2.39    1.65   -1.00
   10      C10     12.01  -0.075   -4.11    1.41   -0.71
   11      H11      6.53  -0.022   -0.69    0.92   -0.78
   12      H12      6.55  -0.020   -0.70    0.92   -0.73
   13      H13      6.55  -0.020   -0.64    0.92   -0.72
   14      H14      5.51  -0.025   -1.20    0.78   -0.42
   15      H15      6.58  -0.023   -0.97    0.93   -0.74
   16      H16      6.28  -0.033   -1.65    0.89   -0.53
   17      H17      6.56  -0.034   -1.45    0.93   -0.79
   18      H18      6.46  -0.059   -3.23    0.91   -0.78
   19      H19      6.12  -0.057   -3.19    0.86   -0.63
   20      H20      6.28  -0.079   -4.68    0.89   -0.65
   21      H21      6.40  -0.066   -3.33    0.90   -0.81
   22      H22      6.42  -0.065   -3.18    0.91   -0.80
   23      H23      6.40  -0.066   -3.31    0.90   -0.81
   24      H24      6.19  -0.078   -4.61    0.87   -0.62
 --------------------------------------------------------------------
 - cavitation energy not included in the total energy.
 - dispersion energy not included in the total energy.
 - repulsion  energy not included in the total energy.
 After PCM corrections, the energy is  -406.113623809     a.u.
 --------------------------------------------------------------------
 Writing COSMO formatted file "REACWASHYHDPSQ-UHFFFAOYSA-N.cosmo"
 Recomputed dielectric energy= -0.081432 old= -0.083494 diff= 2.06D-03

 **********************************************************************

            Population analysis using the SCF Density.

 **********************************************************************

 Orbital symmetries:
       Occupied  (A) (A) (A) (A) (A) (A) (A) (A) (A) (A) (A) (A)
                 (A) (A) (A) (A) (A) (A) (A) (A) (A) (A) (A) (A)
                 (A) (A) (A) (A) (A) (A) (A) (A) (A) (A) (A) (A)
                 (A)
       Virtual   (A) (A) (A) (A) (A) (A) (A) (A) (A) (A) (A) (A)
                 (A) (A) (A) (A) (A) (A) (A) (A) (A) (A) (A) (A)
                 (A) (A) (A) (A) (A) (A) (A) (A) (A) (A) (A) (A)
                 (A) (A) (A) (A) (A) (A) (A) (A) (A) (A) (A) (A)
                 (A) (A) (A) (A) (A) (A) (A) (A) (A) (A) (A) (A)
                 (A) (A) (A) (A) (A) (A) (A) (A) (A) (A) (A) (A)
                 (A) (A) (A) (A) (A) (A) (A) (A) (A) (A) (A) (A)
                 (A) (A) (A) (A) (A) (A) (A) (A) (A) (A) (A) (A)
                 (A) (A) (A) (A) (A) (A) (A) (A) (A) (A) (A) (A)
                 (A) (A) (A) (A) (A) (A) (A) (A) (A) (A) (A) (A)
                 (A) (A) (A) (A) (A) (A) (A) (A) (A) (A) (A) (A)
                 (A) (A) (A) (A) (A) (A) (A) (A) (A) (A) (A) (A)
                 (A) (A) (A) (A) (A) (A) (A) (A) (A) (A) (A) (A)
                 (A) (A) (A) (A) (A) (A) (A) (A) (A) (A) (A) (A)
                 (A) (A) (A) (A) (A) (A) (A) (A) (A) (A) (A) (A)
                 (A) (A) (A) (A) (A) (A) (A) (A) (A) (A) (A) (A)
                 (A) (A) (A) (A) (A) (A) (A) (A) (A) (A) (A) (A)
                 (A) (A) (A) (A) (A) (A) (A) (A) (A) (A) (A) (A)
                 (A) (A) (A) (A) (A) (A) (A) (A) (A) (A) (A) (A)
                 (A) (A) (A) (A) (A) (A) (A) (A) (A)
 The electronic state is 1-A.
 Alpha  occ. eigenvalues --  -14.12366  -9.98387  -9.98320  -9.95687  -9.95092
 Alpha  occ. eigenvalues --   -9.94409  -9.94394  -9.90714  -9.89658  -9.88449
 Alpha  occ. eigenvalues --   -0.95894  -0.79120  -0.74647  -0.73332  -0.68046
 Alpha  occ. eigenvalues --   -0.62920  -0.61846  -0.58559  -0.53705  -0.50593
 Alpha  occ. eigenvalues --   -0.48683  -0.46379  -0.44810  -0.43672  -0.42791
 Alpha  occ. eigenvalues --   -0.41267  -0.38996  -0.37975  -0.36182  -0.35997
 Alpha  occ. eigenvalues --   -0.34565  -0.33179  -0.31893  -0.30045  -0.29297
 Alpha  occ. eigenvalues --   -0.29074  -0.28107
 Alpha virt. eigenvalues --   -0.11856  -0.08715   0.01965   0.03330   0.03897
 Alpha virt. eigenvalues --    0.04443   0.05082   0.06272   0.07235   0.07384
 Alpha virt. eigenvalues --    0.08229   0.09202   0.09513   0.09676   0.10683
 Alpha virt. eigenvalues --    0.11283   0.12394   0.13112   0.13200   0.14027
 Alpha virt. eigenvalues --    0.15373   0.17259   0.17828   0.18933   0.19011
 Alpha virt. eigenvalues --    0.19293   0.19813   0.20754   0.21435   0.21978
 Alpha virt. eigenvalues --    0.22327   0.22936   0.23712   0.25377   0.26234
 Alpha virt. eigenvalues --    0.27255   0.28013   0.30049   0.30326   0.31677
 Alpha virt. eigenvalues --    0.31960   0.33056   0.33566   0.34813   0.36963
 Alpha virt. eigenvalues --    0.37414   0.38509   0.39192   0.39355   0.39945
 Alpha virt. eigenvalues --    0.40315   0.41099   0.41598   0.41908   0.42615
 Alpha virt. eigenvalues --    0.43430   0.43856   0.44212   0.44710   0.45432
 Alpha virt. eigenvalues --    0.45840   0.46614   0.47179   0.47809   0.48903
 Alpha virt. eigenvalues --    0.50624   0.51419   0.52676   0.55520   0.56951
 Alpha virt. eigenvalues --    0.57561   0.59573   0.60847   0.61711   0.65604
 Alpha virt. eigenvalues --    0.66377   0.67394   0.70147   0.72124   0.75695
 Alpha virt. eigenvalues --    0.78090   1.03488   1.08986   1.10554   1.13254
 Alpha virt. eigenvalues --    1.13322   1.15939   1.17432   1.17784   1.19251
 Alpha virt. eigenvalues --    1.19806   1.20506   1.20910   1.21616   1.23075
 Alpha virt. eigenvalues --    1.23393   1.24774   1.25244   1.26665   1.29115
 Alpha virt. eigenvalues --    1.29289   1.30309   1.31024   1.32241   1.34028
 Alpha virt. eigenvalues --    1.34201   1.34935   1.35386   1.36250   1.36842
 Alpha virt. eigenvalues --    1.38727   1.39039   1.40672   1.41407   1.41699
 Alpha virt. eigenvalues --    1.43971   1.44481   1.45694   1.47520   1.48140
 Alpha virt. eigenvalues --    1.48746   1.49781   1.53763   1.55810   1.57572
 Alpha virt. eigenvalues --    1.60353   1.60869   1.63766   1.64193   1.66164
 Alpha virt. eigenvalues --    1.66986   1.67951   1.68790   1.69450   1.71203
 Alpha virt. eigenvalues --    1.72382   1.73035   1.73486   1.74201   1.74732
 Alpha virt. eigenvalues --    1.76056   1.77431   1.77872   1.78630   1.79143
 Alpha virt. eigenvalues --    1.80304   1.81534   1.82338   1.83007   1.83858
 Alpha virt. eigenvalues --    1.86957   1.87687   1.89933   1.92431   1.92874
 Alpha virt. eigenvalues --    1.95128   1.96287   2.00252   2.06675   2.08965
 Alpha virt. eigenvalues --    2.12790   2.14980   2.16133   2.16827   2.18953
 Alpha virt. eigenvalues --    2.19431   2.21487   2.24959   2.25423   2.27542
 Alpha virt. eigenvalues --    2.29632   2.30699   2.31990   2.33168   2.35064
 Alpha virt. eigenvalues --    2.35904   2.37204   2.38194   2.40769   2.43332
 Alpha virt. eigenvalues --    2.44715   2.45723   2.46668   2.47584   2.48155
 Alpha virt. eigenvalues --    2.50392   2.51718   2.54469   2.55204   2.57119
 Alpha virt. eigenvalues --    2.58719   2.59536   2.60703   2.61955   2.62819
 Alpha virt. eigenvalues --    2.65463   2.67606   2.68051   2.69392   2.71781
 Alpha virt. eigenvalues --    2.72808   2.76930   2.81171   2.87333   2.90073
 Alpha virt. eigenvalues --    2.92709   2.93454   3.01958   3.03188   3.04522
 Alpha virt. eigenvalues --    3.08421   3.09161   3.14067   3.19956   3.20357
 Alpha virt. eigenvalues --    3.21843   3.23493   3.27778   3.28555   3.30340
 Alpha virt. eigenvalues --    3.32507   3.35716   3.37482   3.40078   3.51988
 Alpha virt. eigenvalues --    3.67234   3.73607  21.26957  21.56130  21.65960
 Alpha virt. eigenvalues --   21.73920  21.78605  21.81149  21.83702  21.87509
 Alpha virt. eigenvalues --   21.91359  31.58502
          Condensed to atoms (all electrons):
               1          2          3          4          5          6
     1  C    5.081163   0.245252  -0.057530   0.017027  -0.000007  -0.000655
     2  C    0.245252   5.268408   0.179673  -0.065523   0.012534  -0.003162
     3  C   -0.057530   0.179673   5.327171   0.240858  -0.044834  -0.015773
     4  C    0.017027  -0.065523   0.240858   5.217063   0.152954  -0.044177
     5  N   -0.000007   0.012534  -0.044834   0.152954   6.274924   0.427236
     6  C   -0.000655  -0.003162  -0.015773  -0.044177   0.427236   4.976765
     7  C   -0.000123  -0.000515   0.005141   0.009785  -0.047602   0.394756
     8  C   -0.000015   0.001061  -0.003006  -0.000856  -0.018553   0.006211
     9  C   -0.000086  -0.002859   0.000514   0.013790  -0.044307  -0.104963
    10  C   -0.000297   0.016377  -0.028389  -0.042850   0.429335  -0.027862
    11  H    0.395915  -0.036845   0.011475  -0.000662   0.000039   0.000020
    12  H    0.401840  -0.033396  -0.010390   0.000675  -0.000212   0.000011
    13  H    0.418979  -0.049664  -0.005465  -0.001657   0.000133   0.000021
    14  H   -0.022070   0.403352  -0.027653  -0.027159   0.011877   0.001858
    15  H   -0.042663   0.412977  -0.056580   0.015373  -0.005133   0.000175
    16  H   -0.005195  -0.054586   0.421513  -0.028737  -0.011464   0.005096
    17  H   -0.001102  -0.031379   0.414670  -0.048885   0.008425   0.000810
    18  H   -0.000740   0.014286  -0.056056   0.416739  -0.020963  -0.009349
    19  H   -0.000374  -0.016871  -0.026201   0.404995  -0.028940   0.008529
    20  H   -0.000038  -0.000145  -0.006484   0.001722  -0.032605   0.411230
    21  H   -0.000000  -0.000021   0.000143  -0.000279   0.003332  -0.030507
    22  H    0.000001   0.000001  -0.000000  -0.000015  -0.000997   0.013009
    23  H   -0.000001  -0.000060   0.000028  -0.000173   0.003456   0.000715
    24  H   -0.000111   0.002387  -0.003636  -0.006848  -0.032415   0.010198
               7          8          9         10         11         12
     1  C   -0.000123  -0.000015  -0.000086  -0.000297   0.395915   0.401840
     2  C   -0.000515   0.001061  -0.002859   0.016377  -0.036845  -0.033396
     3  C    0.005141  -0.003006   0.000514  -0.028389   0.011475  -0.010390
     4  C    0.009785  -0.000856   0.013790  -0.042850  -0.000662   0.000675
     5  N   -0.047602  -0.018553  -0.044307   0.429335   0.000039  -0.000212
     6  C    0.394756   0.006211  -0.104963  -0.027862   0.000020   0.000011
     7  C    5.063990   0.370660   0.069689  -0.129319  -0.000001   0.000037
     8  C    0.370660   4.996157   0.364929   0.025228   0.000002  -0.000005
     9  C    0.069689   0.364929   5.114281   0.330996  -0.000015   0.000008
    10  C   -0.129319   0.025228   0.330996   5.039697   0.000036   0.000023
    11  H   -0.000001   0.000002  -0.000015   0.000036   0.535625  -0.023619
    12  H    0.000037  -0.000005   0.000008   0.000023  -0.023619   0.556242
    13  H    0.000001  -0.000000   0.000003  -0.000022  -0.025343  -0.032780
    14  H    0.000536  -0.000897   0.000459  -0.006154  -0.003661  -0.007274
    15  H    0.000113  -0.000053   0.000294  -0.000312  -0.002784   0.007933
    16  H    0.001232  -0.000308   0.000692  -0.000036  -0.000110   0.005158
    17  H   -0.000103   0.000010   0.000026   0.000106  -0.000170  -0.000545
    18  H    0.000812   0.000031  -0.001176   0.005371   0.000021   0.000037
    19  H    0.000058  -0.000730   0.004566  -0.010770  -0.000009  -0.000027
    20  H   -0.038822   0.009499  -0.003710   0.010604   0.000001  -0.000014
    21  H    0.395021  -0.028887   0.006970   0.000585  -0.000000   0.000000
    22  H   -0.054643   0.434270  -0.055305   0.014110   0.000000  -0.000000
    23  H    0.007201  -0.029680   0.396381  -0.031091  -0.000000   0.000000
    24  H   -0.003486   0.009419  -0.035154   0.410870   0.000009   0.000001
              13         14         15         16         17         18
     1  C    0.418979  -0.022070  -0.042663  -0.005195  -0.001102  -0.000740
     2  C   -0.049664   0.403352   0.412977  -0.054586  -0.031379   0.014286
     3  C   -0.005465  -0.027653  -0.056580   0.421513   0.414670  -0.056056
     4  C   -0.001657  -0.027159   0.015373  -0.028737  -0.048885   0.416739
     5  N    0.000133   0.011877  -0.005133  -0.011464   0.008425  -0.020963
     6  C    0.000021   0.001858   0.000175   0.005096   0.000810  -0.009349
     7  C    0.000001   0.000536   0.000113   0.001232  -0.000103   0.000812
     8  C   -0.000000  -0.000897  -0.000053  -0.000308   0.000010   0.000031
     9  C    0.000003   0.000459   0.000294   0.000692   0.000026  -0.001176
    10  C   -0.000022  -0.006154  -0.000312  -0.000036   0.000106   0.005371
    11  H   -0.025343  -0.003661  -0.002784  -0.000110  -0.000170   0.000021
    12  H   -0.032780  -0.007274   0.007933   0.005158  -0.000545   0.000037
    13  H    0.551571   0.007807  -0.007299  -0.000372   0.005478  -0.000037
    14  H    0.007807   0.544591  -0.032861  -0.003223   0.005731  -0.000527
    15  H   -0.007299  -0.032861   0.560283   0.007481  -0.004831   0.000038
    16  H   -0.000372  -0.003223   0.007481   0.512029  -0.020623  -0.001736
    17  H    0.005478   0.005731  -0.004831  -0.020623   0.500629  -0.002904
    18  H   -0.000037  -0.000527   0.000038  -0.001736  -0.002904   0.461809
    19  H    0.000152   0.001552   0.002781   0.004752  -0.000879  -0.017515
    20  H    0.000000  -0.000048  -0.000019   0.000967   0.000111  -0.001706
    21  H   -0.000000  -0.000003   0.000001   0.000050  -0.000002   0.000026
    22  H   -0.000000  -0.000014  -0.000000  -0.000002  -0.000000  -0.000000
    23  H   -0.000000  -0.000021   0.000008   0.000004  -0.000001   0.000006
    24  H    0.000001  -0.000523  -0.000089  -0.000043  -0.000005   0.000509
              19         20         21         22         23         24
     1  C   -0.000374  -0.000038  -0.000000   0.000001  -0.000001  -0.000111
     2  C   -0.016871  -0.000145  -0.000021   0.000001  -0.000060   0.002387
     3  C   -0.026201  -0.006484   0.000143  -0.000000   0.000028  -0.003636
     4  C    0.404995   0.001722  -0.000279  -0.000015  -0.000173  -0.006848
     5  N   -0.028940  -0.032605   0.003332  -0.000997   0.003456  -0.032415
     6  C    0.008529   0.411230  -0.030507   0.013009   0.000715   0.010198
     7  C    0.000058  -0.038822   0.395021  -0.054643   0.007201  -0.003486
     8  C   -0.000730   0.009499  -0.028887   0.434270  -0.029680   0.009419
     9  C    0.004566  -0.003710   0.006970  -0.055305   0.396381  -0.035154
    10  C   -0.010770   0.010604   0.000585   0.014110  -0.031091   0.410870
    11  H   -0.000009   0.000001  -0.000000   0.000000  -0.000000   0.000009
    12  H   -0.000027  -0.000014   0.000000  -0.000000   0.000000   0.000001
    13  H    0.000152   0.000000  -0.000000  -0.000000  -0.000000   0.000001
    14  H    0.001552  -0.000048  -0.000003  -0.000014  -0.000021  -0.000523
    15  H    0.002781  -0.000019   0.000001  -0.000000   0.000008  -0.000089
    16  H    0.004752   0.000967   0.000050  -0.000002   0.000004  -0.000043
    17  H   -0.000879   0.000111  -0.000002  -0.000000  -0.000001  -0.000005
    18  H   -0.017515  -0.001706   0.000026  -0.000000   0.000006   0.000509
    19  H    0.473062   0.000421   0.000013  -0.000003   0.000073  -0.001164
    20  H    0.000421   0.452450  -0.001801  -0.000073   0.000022   0.000038
    21  H    0.000013  -0.001801   0.454926  -0.005304  -0.000167   0.000024
    22  H   -0.000003  -0.000073  -0.005304   0.478550  -0.005417  -0.000078
    23  H    0.000073   0.000022  -0.000167  -0.005417   0.455033  -0.001859
    24  H   -0.001164   0.000038   0.000024  -0.000078  -0.001859   0.456127
 Mulliken charges:
               1
     1  C   -0.429169
     2  C   -0.261280
     3  C   -0.259187
     4  C   -0.223159
     5  N   -0.036214
     6  C   -0.020193
     7  C   -0.044417
     8  C   -0.134483
     9  C   -0.056023
    10  C   -0.006237
    11  H    0.150077
    12  H    0.136297
    13  H    0.138492
    14  H    0.154322
    15  H    0.145167
    16  H    0.167462
    17  H    0.175433
    18  H    0.213026
    19  H    0.202526
    20  H    0.198401
    21  H    0.205881
    22  H    0.181909
    23  H    0.205543
    24  H    0.195826
 Sum of Mulliken charges =   1.00000
 Mulliken charges with hydrogens summed into heavy atoms:
               1
     1  C   -0.004304
     2  C    0.038210
     3  C    0.083707
     4  C    0.192394
     5  N   -0.036214
     6  C    0.178208
     7  C    0.161464
     8  C    0.047426
     9  C    0.149521
    10  C    0.189589
 Electronic spatial extent (au):  <R**2>=           1780.5057
 Charge=              1.0000 electrons
 Dipole moment (field-independent basis, Debye):
    X=              4.1424    Y=              1.3162    Z=              1.0712  Tot=              4.4765
 Quadrupole moment (field-independent basis, Debye-Ang):
   XX=            -42.0480   YY=            -50.0599   ZZ=            -51.2614
   XY=             -5.4481   XZ=             -5.6477   YZ=             -3.7353
 Traceless Quadrupole moment (field-independent basis, Debye-Ang):
   XX=              5.7418   YY=             -2.2702   ZZ=             -3.4716
   XY=             -5.4481   XZ=             -5.6477   YZ=             -3.7353
 Octapole moment (field-independent basis, Debye-Ang**2):
  XXX=             44.4070  YYY=              8.2558  ZZZ=              6.8080  XYY=             10.8864
  XXY=            -11.9400  XXZ=            -11.8952  XZZ=             10.4150  YZZ=              2.9455
  YYZ=              3.2578  XYZ=             -8.1300
 Hexadecapole moment (field-independent basis, Debye-Ang**3):
 XXXX=          -1574.1224 YYYY=           -359.7594 ZZZZ=           -287.0858 XXXY=            -69.1067
 XXXZ=            -74.1004 YYYX=            -20.7139 YYYZ=            -11.9276 ZZZX=            -23.5342
 ZZZY=            -16.8217 XXYY=           -316.7506 XXZZ=           -311.5918 YYZZ=           -104.2839
 XXYZ=             -8.6378 YYXZ=             -2.3517 ZZXY=             -2.6931
 N-N= 5.186797651023D+02 E-N=-1.965185037939D+03  KE= 4.039624053948D+02
 Unable to Open any file for archive entry.
 1\1\GINC-TCN1659\SP\RBP86\TZVP\C9H14N1(1+)\ELENAA\23-Feb-2021\0\\# BP8
 6/TZVP SCRF=COSMORS geom=CHECKPOINT guess=CHECKPOINT\\COSMO-file for #
 REACWASHYHDPSQ-UHFFFAOYSA-N\\1,1\C,0,-2.9789742254,-0.9060267576,-3.17
 07246995\C,0,-2.1977045836,-0.7067840627,-1.8663309224\C,0,-2.75362894
 88,0.4540046577,-1.0329988404\C,0,-2.0359520146,0.6695143513,0.3032074
 739\N,0,-0.5939303393,1.0128292335,0.1017814488\C,0,-0.2698844405,2.26
 46372605,-0.3150593554\C,0,1.0489572791,2.6033381079,-0.5722451635\C,0
 ,2.049378489,1.6400681401,-0.4052022004\C,0,1.6966862075,0.3579675078,
 0.024296583\C,0,0.3629622381,0.0651620555,0.2716499442\H,0,-2.56817616
 47,-1.7414108318,-3.7565662439\H,0,-2.9372359985,-0.0012626088,-3.7975
 330906\H,0,-4.0390598257,-1.1244165579,-2.9669961109\H,0,-1.1359713525
 ,-0.5214963147,-2.1029005661\H,0,-2.2275271257,-1.6324659967,-1.266219
 1457\H,0,-2.7266164769,1.3886001484,-1.6183661557\H,0,-3.8131197985,0.
 2705180926,-0.7902513527\H,0,-2.4839511542,1.4922717806,0.8749305336\H
 ,0,-2.0624975789,-0.2350081728,0.9237206875\H,0,-1.095854239,2.9651193
 769,-0.4256105735\H,0,1.2801039505,3.6156839286,-0.9000932199\H,0,3.09
 2235866,1.8885155021,-0.6034831402\H,0,2.4437646841,-0.4207195402,0.16
 98229009\H,0,0.0218055525,-0.9113893003,0.6091212089\\Version=ES64L-G1
 6RevC.01\State=1-A\HF=-406.1136238\RMSD=2.382e-09\Dipole=1.0254043,0.7
 822361,1.1993625\Quadrupole=6.4560744,0.9326894,-7.3887637,1.9655795,0
 .0297436,-1.7833778\PG=C01 [X(C9H14N1)]\\@
 The archive entry for this job was punched.


 THE UNDERLYING PHYSICAL LAWS NECESSARY FOR THE 
 MATHEMATICAL THEORY OF A LARGE PART OF PHYSICS AND THE
 WHOLE OF CHEMISTRY ARE THUS COMPLETELY KNOWN, AND THE
 DIFFICULTY IS ONLY THAT THE EXACT APPLICATION OF THESE
 LAWS LEADS TO EQUATIONS MUCH TOO COMPLICATED 
 TO BE SOLUBLE.

                                        -- P. A. M. DIRAC, 1929
 Job cpu time:       0 days  0 hours  7 minutes 34.1 seconds.
 Elapsed time:       0 days  0 hours  0 minutes 14.8 seconds.
 File lengths (MBytes):  RWF=     63 Int=      0 D2E=      0 Chk=      9 Scr=      1
 Normal termination of Gaussian 16 at Tue Feb 23 00:14:51 2021.
