 Entering Gaussian System, Link 0=g16
 Input=RZVAJINKPMORJF-UHFFFAOYSA-N.gjf
 Output=RZVAJINKPMORJF-UHFFFAOYSA-N.log
 Initial command:
 /sw/arch/RedHatEnterpriseServer7/EB_production/2019/software/Gaussian/g16.c01/l1.exe "/scratch-local/elenaa.9715273/Gau-5235.inp" -scrdir="/scratch-local/elenaa.9715273/"
 Entering Link 1 = /sw/arch/RedHatEnterpriseServer7/EB_production/2019/software/Gaussian/g16.c01/l1.exe PID=      5236.
  
 Copyright (c) 1988-2019, Gaussian, Inc.  All Rights Reserved.
  
 This is part of the Gaussian(R) 16 program.  It is based on
 the Gaussian(R) 09 system (copyright 2009, Gaussian, Inc.),
 the Gaussian(R) 03 system (copyright 2003, Gaussian, Inc.),
 the Gaussian(R) 98 system (copyright 1998, Gaussian, Inc.),
 the Gaussian(R) 94 system (copyright 1995, Gaussian, Inc.),
 the Gaussian 92(TM) system (copyright 1992, Gaussian, Inc.),
 the Gaussian 90(TM) system (copyright 1990, Gaussian, Inc.),
 the Gaussian 88(TM) system (copyright 1988, Gaussian, Inc.),
 the Gaussian 86(TM) system (copyright 1986, Carnegie Mellon
 University), and the Gaussian 82(TM) system (copyright 1983,
 Carnegie Mellon University). Gaussian is a federally registered
 trademark of Gaussian, Inc.
  
 This software contains proprietary and confidential information,
 including trade secrets, belonging to Gaussian, Inc.
  
 This software is provided under written license and may be
 used, copied, transmitted, or stored only in accord with that
 written license.
  
 The following legend is applicable only to US Government
 contracts under FAR:
  
                    RESTRICTED RIGHTS LEGEND
  
 Use, reproduction and disclosure by the US Government is
 subject to restrictions as set forth in subparagraphs (a)
 and (c) of the Commercial Computer Software - Restricted
 Rights clause in FAR 52.227-19.
  
 Gaussian, Inc.
 340 Quinnipiac St., Bldg. 40, Wallingford CT 06492
  
  
 ---------------------------------------------------------------
 Warning -- This program may not be used in any manner that
 competes with the business of Gaussian, Inc. or will provide
 assistance to any competitor of Gaussian, Inc.  The licensee
 of this program is prohibited from giving any competitor of
 Gaussian, Inc. access to this program.  By using this program,
 the user acknowledges that Gaussian, Inc. is engaged in the
 business of creating and licensing software in the field of
 computational chemistry and represents and warrants to the
 licensee that it is not a competitor of Gaussian, Inc. and that
 it will not use this program in any manner prohibited above.
 ---------------------------------------------------------------
  

 Cite this work as:
 Gaussian 16, Revision C.01,
 M. J. Frisch, G. W. Trucks, H. B. Schlegel, G. E. Scuseria, 
 M. A. Robb, J. R. Cheeseman, G. Scalmani, V. Barone, 
 G. A. Petersson, H. Nakatsuji, X. Li, M. Caricato, A. V. Marenich, 
 J. Bloino, B. G. Janesko, R. Gomperts, B. Mennucci, H. P. Hratchian, 
 J. V. Ortiz, A. F. Izmaylov, J. L. Sonnenberg, D. Williams-Young, 
 F. Ding, F. Lipparini, F. Egidi, J. Goings, B. Peng, A. Petrone, 
 T. Henderson, D. Ranasinghe, V. G. Zakrzewski, J. Gao, N. Rega, 
 G. Zheng, W. Liang, M. Hada, M. Ehara, K. Toyota, R. Fukuda, 
 J. Hasegawa, M. Ishida, T. Nakajima, Y. Honda, O. Kitao, H. Nakai, 
 T. Vreven, K. Throssell, J. A. Montgomery, Jr., J. E. Peralta, 
 F. Ogliaro, M. J. Bearpark, J. J. Heyd, E. N. Brothers, K. N. Kudin, 
 V. N. Staroverov, T. A. Keith, R. Kobayashi, J. Normand, 
 K. Raghavachari, A. P. Rendell, J. C. Burant, S. S. Iyengar, 
 J. Tomasi, M. Cossi, J. M. Millam, M. Klene, C. Adamo, R. Cammi, 
 J. W. Ochterski, R. L. Martin, K. Morokuma, O. Farkas, 
 J. B. Foresman, and D. J. Fox, Gaussian, Inc., Wallingford CT, 2019.
 
 ******************************************
 Gaussian 16:  ES64L-G16RevC.01  3-Jul-2019
                22-Feb-2021 
 ******************************************
 %chk=RZVAJINKPMORJF-UHFFFAOYSA-N.chk
 %NProcShared=32
 Will use up to   32 processors via shared memory.
 -------------------------------------------------------------
 #P BP86/TZVP EmpiricalDispersion=GD3 SCRF=(Solvent=Water) Opt
 -------------------------------------------------------------
 1/18=20,19=15,26=3,38=1/1,3;
 2/9=110,12=2,17=6,18=5,40=1/2;
 3/5=19,7=101,11=2,25=1,30=1,70=2201,71=1,72=1,74=404,124=31/1,2,3;
 4//1;
 5/5=2,38=5,53=1/2;
 6/7=2,8=2,9=2,10=2,28=1/1;
 7//1,2,3,16;
 1/18=20,19=15,26=3/3(2);
 2/9=110/2;
 99//99;
 2/9=110/2;
 3/5=19,7=101,11=2,25=1,30=1,70=2205,71=1,72=1,74=404,124=31/1,2,3;
 4/5=5,16=3,69=1/1;
 5/5=2,38=5,53=1/2;
 7//1,2,3,16;
 1/18=20,19=15,26=3/3(-5);
 2/9=110/2;
 6/7=2,8=2,9=2,10=2,19=2,28=1/1;
 99/9=1/99;
 Leave Link    1 at Mon Feb 22 21:18:51 2021, MaxMem=           0 cpu:               1.9 elap:               0.1
 (Enter /sw/arch/RedHatEnterpriseServer7/EB_production/2019/software/Gaussian/g16.c01/l101.exe)
 -------------------------------------
 Particle #RZVAJINKPMORJF-UHFFFAOYSA-N
 -------------------------------------
 Symbolic Z-matrix:
 Charge =  0 Multiplicity = 1
 C                     2.01412   3.3926    2.42443 
 C                     2.21429   1.94213   2.28555 
 O                     2.17549   1.44227   1.13724 
 N                     2.45581   1.22024   3.4163 
 C                     2.66772  -0.12247   3.57164 
 C                     3.25661  -0.51679   4.79443 
 C                     3.52792  -1.87011   5.06588 
 C                     3.2029   -2.85677   4.11861 
 O                     3.47763  -4.15646   4.39065 
 C                     2.59542  -2.48344   2.90493 
 C                     2.32961  -1.12861   2.63253 
 H                     2.91602   3.85172   2.83363 
 H                     1.79388   3.85046   1.45909 
 H                     1.17776   3.58364   3.09773 
 H                     2.50456   1.74063   4.23463 
 H                     3.4978    0.18392   5.50095 
 H                     3.96196  -2.13394   5.95418 
 H                     3.2411   -4.64892   3.57692 
 H                     2.34174  -3.19847   2.21997 
 H                     1.87454  -0.89748   1.75104 
 
 ITRead=  0  0  0  0  0  0  0  0  0  0  0  0  0  0  0  0  0  0  0  0
 MicOpt= -1 -1 -1 -1 -1 -1 -1 -1 -1 -1 -1 -1 -1 -1 -1 -1 -1 -1 -1 -1
 NAtoms=     20 NQM=       20 NQMF=       0 NMMI=      0 NMMIF=      0
                NMic=       0 NMicF=      0.
                    Isotopes and Nuclear Properties:
 (Nuclear quadrupole moments (NQMom) in fm**2, nuclear magnetic moments (NMagM)
  in nuclear magnetons)

  Atom         1           2           3           4           5           6           7           8           9          10
 IAtWgt=          12          12          16          14          12          12          12          12          16          12
 AtmWgt=  12.0000000  12.0000000  15.9949146  14.0030740  12.0000000  12.0000000  12.0000000  12.0000000  15.9949146  12.0000000
 NucSpn=           0           0           0           2           0           0           0           0           0           0
 AtZEff=  -0.0000000  -0.0000000  -0.0000000  -0.0000000  -0.0000000  -0.0000000  -0.0000000  -0.0000000  -0.0000000  -0.0000000
 NQMom=    0.0000000   0.0000000   0.0000000   2.0440000   0.0000000   0.0000000   0.0000000   0.0000000   0.0000000   0.0000000
 NMagM=    0.0000000   0.0000000   0.0000000   0.4037610   0.0000000   0.0000000   0.0000000   0.0000000   0.0000000   0.0000000
 AtZNuc=   6.0000000   6.0000000   8.0000000   7.0000000   6.0000000   6.0000000   6.0000000   6.0000000   8.0000000   6.0000000

  Atom        11          12          13          14          15          16          17          18          19          20
 IAtWgt=          12           1           1           1           1           1           1           1           1           1
 AtmWgt=  12.0000000   1.0078250   1.0078250   1.0078250   1.0078250   1.0078250   1.0078250   1.0078250   1.0078250   1.0078250
 NucSpn=           0           1           1           1           1           1           1           1           1           1
 AtZEff=  -0.0000000  -0.0000000  -0.0000000  -0.0000000  -0.0000000  -0.0000000  -0.0000000  -0.0000000  -0.0000000  -0.0000000
 NQMom=    0.0000000   0.0000000   0.0000000   0.0000000   0.0000000   0.0000000   0.0000000   0.0000000   0.0000000   0.0000000
 NMagM=    0.0000000   2.7928460   2.7928460   2.7928460   2.7928460   2.7928460   2.7928460   2.7928460   2.7928460   2.7928460
 AtZNuc=   6.0000000   1.0000000   1.0000000   1.0000000   1.0000000   1.0000000   1.0000000   1.0000000   1.0000000   1.0000000
 Leave Link  101 at Mon Feb 22 21:18:51 2021, MaxMem=   104857600 cpu:               2.7 elap:               0.1
 (Enter /sw/arch/RedHatEnterpriseServer7/EB_production/2019/software/Gaussian/g16.c01/l103.exe)

 GradGradGradGradGradGradGradGradGradGradGradGradGradGradGradGradGradGrad
 Berny optimization.
 Initialization pass.
                           ----------------------------
                           !    Initial Parameters    !
                           ! (Angstroms and Degrees)  !
 --------------------------                            --------------------------
 ! Name  Definition              Value          Derivative Info.                !
 --------------------------------------------------------------------------------
 ! R1    R(1,2)                  1.4708         estimate D2E/DX2                !
 ! R2    R(1,12)                 1.0916         estimate D2E/DX2                !
 ! R3    R(1,13)                 1.0909         estimate D2E/DX2                !
 ! R4    R(1,14)                 1.0906         estimate D2E/DX2                !
 ! R5    R(2,3)                  1.253          estimate D2E/DX2                !
 ! R6    R(2,4)                  1.3631         estimate D2E/DX2                !
 ! R7    R(4,5)                  1.3682         estimate D2E/DX2                !
 ! R8    R(4,15)                 0.971          estimate D2E/DX2                !
 ! R9    R(5,6)                  1.4133         estimate D2E/DX2                !
 ! R10   R(5,11)                 1.4172         estimate D2E/DX2                !
 ! R11   R(6,7)                  1.4067         estimate D2E/DX2                !
 ! R12   R(6,16)                 1.0239         estimate D2E/DX2                !
 ! R13   R(7,8)                  1.4059         estimate D2E/DX2                !
 ! R14   R(7,17)                 1.0233         estimate D2E/DX2                !
 ! R15   R(8,9)                  1.356          estimate D2E/DX2                !
 ! R16   R(8,10)                 1.4076         estimate D2E/DX2                !
 ! R17   R(9,18)                 0.9801         estimate D2E/DX2                !
 ! R18   R(10,11)                1.4073         estimate D2E/DX2                !
 ! R19   R(10,19)                1.0222         estimate D2E/DX2                !
 ! R20   R(11,20)                1.0186         estimate D2E/DX2                !
 ! A1    A(2,1,12)             109.7383         estimate D2E/DX2                !
 ! A2    A(2,1,13)             110.9673         estimate D2E/DX2                !
 ! A3    A(2,1,14)             109.5985         estimate D2E/DX2                !
 ! A4    A(12,1,13)            108.7833         estimate D2E/DX2                !
 ! A5    A(12,1,14)            109.1783         estimate D2E/DX2                !
 ! A6    A(13,1,14)            108.5409         estimate D2E/DX2                !
 ! A7    A(1,2,3)              118.4079         estimate D2E/DX2                !
 ! A8    A(1,2,4)              117.9085         estimate D2E/DX2                !
 ! A9    A(3,2,4)              123.673          estimate D2E/DX2                !
 ! A10   A(2,4,5)              129.8935         estimate D2E/DX2                !
 ! A11   A(2,4,15)             115.0988         estimate D2E/DX2                !
 ! A12   A(5,4,15)             114.9921         estimate D2E/DX2                !
 ! A13   A(4,5,6)              115.8856         estimate D2E/DX2                !
 ! A14   A(4,5,11)             125.7699         estimate D2E/DX2                !
 ! A15   A(6,5,11)             118.3355         estimate D2E/DX2                !
 ! A16   A(5,6,7)              121.0466         estimate D2E/DX2                !
 ! A17   A(5,6,16)             120.2799         estimate D2E/DX2                !
 ! A18   A(7,6,16)             118.673          estimate D2E/DX2                !
 ! A19   A(6,7,8)              120.0382         estimate D2E/DX2                !
 ! A20   A(6,7,17)             119.8267         estimate D2E/DX2                !
 ! A21   A(8,7,17)             120.135          estimate D2E/DX2                !
 ! A22   A(7,8,9)              119.3842         estimate D2E/DX2                !
 ! A23   A(7,8,10)             119.6431         estimate D2E/DX2                !
 ! A24   A(9,8,10)             120.9725         estimate D2E/DX2                !
 ! A25   A(8,9,18)             105.4344         estimate D2E/DX2                !
 ! A26   A(8,10,11)            120.248          estimate D2E/DX2                !
 ! A27   A(8,10,19)            119.9577         estimate D2E/DX2                !
 ! A28   A(11,10,19)           119.7936         estimate D2E/DX2                !
 ! A29   A(5,11,10)            120.6737         estimate D2E/DX2                !
 ! A30   A(5,11,20)            121.2609         estimate D2E/DX2                !
 ! A31   A(10,11,20)           118.0571         estimate D2E/DX2                !
 ! D1    D(12,1,2,3)          -117.0289         estimate D2E/DX2                !
 ! D2    D(12,1,2,4)            61.8292         estimate D2E/DX2                !
 ! D3    D(13,1,2,3)             3.2258         estimate D2E/DX2                !
 ! D4    D(13,1,2,4)          -177.916          estimate D2E/DX2                !
 ! D5    D(14,1,2,3)           123.0879         estimate D2E/DX2                !
 ! D6    D(14,1,2,4)           -58.054          estimate D2E/DX2                !
 ! D7    D(1,2,4,5)            179.6267         estimate D2E/DX2                !
 ! D8    D(1,2,4,15)            -1.9003         estimate D2E/DX2                !
 ! D9    D(3,2,4,5)             -1.5802         estimate D2E/DX2                !
 ! D10   D(3,2,4,15)           176.8929         estimate D2E/DX2                !
 ! D11   D(2,4,5,6)            162.7712         estimate D2E/DX2                !
 ! D12   D(2,4,5,11)           -18.3458         estimate D2E/DX2                !
 ! D13   D(15,4,5,6)           -15.7032         estimate D2E/DX2                !
 ! D14   D(15,4,5,11)          163.1798         estimate D2E/DX2                !
 ! D15   D(4,5,6,7)           -179.7267         estimate D2E/DX2                !
 ! D16   D(4,5,6,16)             0.0343         estimate D2E/DX2                !
 ! D17   D(11,5,6,7)             1.303          estimate D2E/DX2                !
 ! D18   D(11,5,6,16)         -178.936          estimate D2E/DX2                !
 ! D19   D(4,5,11,10)         -179.8951         estimate D2E/DX2                !
 ! D20   D(4,5,11,20)           -0.9605         estimate D2E/DX2                !
 ! D21   D(6,5,11,10)           -1.0368         estimate D2E/DX2                !
 ! D22   D(6,5,11,20)          177.8977         estimate D2E/DX2                !
 ! D23   D(5,6,7,8)             -0.5273         estimate D2E/DX2                !
 ! D24   D(5,6,7,17)           179.4867         estimate D2E/DX2                !
 ! D25   D(16,6,7,8)           179.708          estimate D2E/DX2                !
 ! D26   D(16,6,7,17)           -0.278          estimate D2E/DX2                !
 ! D27   D(6,7,8,9)            179.6053         estimate D2E/DX2                !
 ! D28   D(6,7,8,10)            -0.5395         estimate D2E/DX2                !
 ! D29   D(17,7,8,9)            -0.4088         estimate D2E/DX2                !
 ! D30   D(17,7,8,10)          179.4465         estimate D2E/DX2                !
 ! D31   D(7,8,9,18)          -175.4313         estimate D2E/DX2                !
 ! D32   D(10,8,9,18)            4.7155         estimate D2E/DX2                !
 ! D33   D(7,8,10,11)            0.8004         estimate D2E/DX2                !
 ! D34   D(7,8,10,19)         -178.9002         estimate D2E/DX2                !
 ! D35   D(9,8,10,11)         -179.3467         estimate D2E/DX2                !
 ! D36   D(9,8,10,19)            0.9526         estimate D2E/DX2                !
 ! D37   D(8,10,11,5)           -0.0014         estimate D2E/DX2                !
 ! D38   D(8,10,11,20)        -178.9693         estimate D2E/DX2                !
 ! D39   D(19,10,11,5)         179.6998         estimate D2E/DX2                !
 ! D40   D(19,10,11,20)          0.7319         estimate D2E/DX2                !
 --------------------------------------------------------------------------------
 Trust Radius=3.00D-01 FncErr=1.00D-07 GrdErr=1.00D-06 EigMax=2.50D+02 EigMin=1.00D-04
 Number of steps in this run=    101 maximum allowed number of steps=    120.
 GradGradGradGradGradGradGradGradGradGradGradGradGradGradGradGradGradGrad

 Leave Link  103 at Mon Feb 22 21:18:51 2021, MaxMem=   104857600 cpu:               0.7 elap:               0.1
 (Enter /sw/arch/RedHatEnterpriseServer7/EB_production/2019/software/Gaussian/g16.c01/l202.exe)
                          Input orientation:                          
 ---------------------------------------------------------------------
 Center     Atomic      Atomic             Coordinates (Angstroms)
 Number     Number       Type             X           Y           Z
 ---------------------------------------------------------------------
      1          6           0        2.014120    3.392600    2.424430
      2          6           0        2.214290    1.942130    2.285550
      3          8           0        2.175490    1.442270    1.137240
      4          7           0        2.455810    1.220240    3.416300
      5          6           0        2.667720   -0.122470    3.571640
      6          6           0        3.256610   -0.516790    4.794430
      7          6           0        3.527920   -1.870110    5.065880
      8          6           0        3.202900   -2.856770    4.118610
      9          8           0        3.477630   -4.156460    4.390650
     10          6           0        2.595420   -2.483440    2.904930
     11          6           0        2.329610   -1.128610    2.632530
     12          1           0        2.916020    3.851720    2.833630
     13          1           0        1.793880    3.850460    1.459090
     14          1           0        1.177760    3.583640    3.097730
     15          1           0        2.504560    1.740630    4.234630
     16          1           0        3.497800    0.183920    5.500950
     17          1           0        3.961960   -2.133940    5.954180
     18          1           0        3.241100   -4.648920    3.576920
     19          1           0        2.341740   -3.198470    2.219970
     20          1           0        1.874540   -0.897480    1.751040
 ---------------------------------------------------------------------
                    Distance matrix (angstroms):
                    1          2          3          4          5
     1  C    0.000000
     2  C    1.470789   0.000000
     3  O    2.342367   1.252989   0.000000
     4  N    2.428589   1.363104   2.306944   0.000000
     5  C    3.754864   2.474308   2.935474   1.368176   0.000000
     6  C    4.737511   3.664314   4.287397   2.357498   1.413328
     7  C    6.079882   4.897860   5.313675   3.663441   2.454983
     8  C    6.583166   5.231338   5.331593   4.203974   2.839364
     9  O    7.937014   6.574213   6.605000   5.558991   4.195212
    10  C    5.924241   4.484926   4.325768   3.741422   2.454365
    11  C    4.536979   3.092432   2.978098   2.479379   1.417238
    12  H    1.091632   2.106977   3.038350   2.734225   4.049753
    13  H    1.090882   2.121675   2.459389   3.344679   4.583736
    14  H    1.090563   2.104421   3.069927   2.705653   4.022415
    15  H    2.499272   1.980851   3.129078   0.971003   1.984268
    16  H    4.686353   3.882975   4.730107   2.550582   2.122533
    17  H    6.840750   5.755653   6.259686   4.467644   3.376028
    18  H    8.215824   6.794403   6.647568   5.923641   4.562624
    19  H    6.602374   5.142598   4.768271   4.579216   3.375656
    20  H    4.344850   2.909384   2.437571   2.756030   2.131750
                    6          7          8          9         10
     6  C    0.000000
     7  C    1.406687   0.000000
     8  C    2.436211   1.405865   0.000000
     9  O    3.668663   2.384504   1.355978   0.000000
    10  C    2.806260   2.432167   1.407631   2.405131   0.000000
    11  C    2.430528   2.811932   2.440821   3.684673   1.407274
    12  H    4.800481   6.172252   6.836469   8.177449   6.343668
    13  H    5.686558   6.981458   7.351552   8.691365   6.546083
    14  H    4.900401   6.256217   6.828050   8.177420   6.233490
    15  H    2.444361   3.843915   4.651583   5.978869   4.429348
    16  H    1.023884   2.099817   3.353152   4.480187   3.829937
    17  H    2.111330   1.023266   2.113758   2.601882   3.359689
    18  H    4.307792   3.165605   1.872616   0.980112   2.357494
    19  H    3.828347   3.357196   2.112626   2.630559   1.022151
    20  H    3.364114   3.829861   3.347946   4.489809   2.089593
                   11         12         13         14         15
    11  C    0.000000
    12  H    5.018765   0.000000
    13  H    5.143453   1.774418   0.000000
    14  H    4.873240   1.778528   1.770858   0.000000
    15  H    3.290877   2.566866   3.558099   2.539611   0.000000
    16  H    3.363813   4.572288   5.716948   4.766146   2.239071
    17  H    3.835181   6.830809   7.792268   6.971499   4.482539
    18  H    3.757029   8.539264   8.878013   8.500708   6.465402
    19  H    2.110610   7.100110   7.111013   6.937026   5.336673
    20  H    1.018594   4.981123   4.757591   4.730699   3.677604
                   16         17         18         19         20
    16  H    0.000000
    17  H    2.406935   0.000000
    18  H    5.208083   3.534986   0.000000
    19  H    4.851996   4.207453   2.180359   0.000000
    20  H    4.226846   4.853096   4.390288   2.394311   0.000000
 Stoichiometry    C8H9NO2
 Framework group  C1[X(C8H9NO2)]
 Deg. of freedom    54
 Full point group                 C1      NOp   1
 Largest Abelian subgroup         C1      NOp   1
 Largest concise Abelian subgroup C1      NOp   1
                         Standard orientation:                         
 ---------------------------------------------------------------------
 Center     Atomic      Atomic             Coordinates (Angstroms)
 Number     Number       Type             X           Y           Z
 ---------------------------------------------------------------------
      1          6           0       -3.942710    0.428008    0.059841
      2          6           0       -2.608323   -0.180556   -0.050975
      3          8           0       -2.530456   -1.400028   -0.328113
      4          7           0       -1.523086    0.623858    0.131324
      5          6           0       -0.189513    0.320700    0.091519
      6          6           0        0.688716    1.418420   -0.054143
      7          6           0        2.081514    1.230324   -0.113330
      8          6           0        2.621602   -0.064022   -0.016225
      9          8           0        3.965620   -0.230869   -0.082972
     10          6           0        1.762264   -1.166197    0.151629
     11          6           0        0.368799   -0.976964    0.205186
     12          1           0       -4.062121    1.196650   -0.706050
     13          1           0       -4.725267   -0.320978   -0.069181
     14          1           0       -4.056787    0.882648    1.044532
     15          1           0       -1.726480    1.559096    0.295056
     16          1           0        0.318218    2.370472   -0.122453
     17          1           0        2.699754    2.037752   -0.226955
     18          1           0        4.109089   -1.200334   -0.069785
     19          1           0        2.150727   -2.107547    0.239651
     20          1           0       -0.220934   -1.795863    0.343584
 ---------------------------------------------------------------------
 Rotational constants (GHZ):           3.6012714           0.5450845           0.4780364
 Leave Link  202 at Mon Feb 22 21:18:51 2021, MaxMem=   104857600 cpu:               0.5 elap:               0.0
 (Enter /sw/arch/RedHatEnterpriseServer7/EB_production/2019/software/Gaussian/g16.c01/l301.exe)
 Standard basis: TZVP (5D, 7F)
 Ernie: Thresh=  0.10000D-02 Tol=  0.10000D-05 Strict=F.
 There are   274 symmetry adapted cartesian basis functions of A   symmetry.
 There are   263 symmetry adapted basis functions of A   symmetry.
   263 basis functions,   457 primitive gaussians,   274 cartesian basis functions
    40 alpha electrons       40 beta electrons
       nuclear repulsion energy       572.2205310432 Hartrees.
 IExCor=  404 DFT=T Ex=B Corr=P86 ExCW=0 ScaHFX=  0.000000
 ScaDFX=  1.000000  1.000000  1.000000  1.000000 ScalE2=  1.000000  1.000000
 IRadAn=      5 IRanWt=     -1 IRanGd=            0 ICorTp=0 IEmpDi=131
 NAtoms=   20 NActive=   20 NUniq=   20 SFac= 1.00D+00 NAtFMM=   60 NAOKFM=F Big=F
 Integral buffers will be    131072 words long.
 Raffenetti 2 integral format.
 Two-electron integral symmetry is turned on.
 R6Disp:  Grimme-D3 Dispersion energy=       -0.0162680147 Hartrees.
 Nuclear repulsion after empirical dispersion term =      572.2042630286 Hartrees.
 ------------------------------------------------------------------------------
 Polarizable Continuum Model (PCM)
 =================================
 Model                : PCM.
 Atomic radii         : UFF (Universal Force Field).
 Polarization charges : Total charges.
 Charge compensation  : None.
 Solution method      : On-the-fly selection.
 Cavity type          : Scaled VdW (van der Waals Surface) (Alpha=1.100).
 Cavity algorithm     : GePol (No added spheres)
                        Default sphere list used, NSphG=   20.
                        Lebedev-Laikov grids with approx.  5.0 points / Ang**2.
                        Smoothing algorithm: York/Karplus (Gamma=1.0000).
                        Polarization charges: spherical gaussians, with
                                              point-specific exponents (IZeta= 3).
                        Self-potential: point-specific (ISelfS= 7).
                        Self-field    : sphere-specific E.n sum rule (ISelfD= 2).
 1st derivatives      : Analytical E(r).r(x)/FMM algorithm (CHGder, D1EAlg=3).
                        Cavity 1st derivative terms included.
 Solvent              : Water, Eps=  78.355300 Eps(inf)=   1.777849
 ------------------------------------------------------------------------------
 Spheres list:
 ISph  on   Nord     Re0    Alpha      Xe            Ye            Ze
    1   C      1    1.9255  1.100     -3.942710      0.428008      0.059841
    2   C      2    1.9255  1.100     -2.608323     -0.180556     -0.050975
    3   O      3    1.7500  1.100     -2.530456     -1.400028     -0.328113
    4   N      4    1.8300  1.100     -1.523086      0.623858      0.131324
    5   C      5    1.9255  1.100     -0.189513      0.320700      0.091519
    6   C      6    1.9255  1.100      0.688716      1.418420     -0.054143
    7   C      7    1.9255  1.100      2.081514      1.230324     -0.113330
    8   C      8    1.9255  1.100      2.621602     -0.064022     -0.016225
    9   O      9    1.7500  1.100      3.965620     -0.230869     -0.082972
   10   C     10    1.9255  1.100      1.762264     -1.166197      0.151629
   11   C     11    1.9255  1.100      0.368799     -0.976964      0.205186
   12   H     12    1.4430  1.100     -4.062121      1.196650     -0.706050
   13   H     13    1.4430  1.100     -4.725267     -0.320978     -0.069181
   14   H     14    1.4430  1.100     -4.056787      0.882648      1.044532
   15   H     15    1.4430  1.100     -1.726480      1.559096      0.295056
   16   H     16    1.4430  1.100      0.318218      2.370472     -0.122453
   17   H     17    1.4430  1.100      2.699754      2.037752     -0.226955
   18   H     18    1.4430  1.100      4.109089     -1.200334     -0.069785
   19   H     19    1.4430  1.100      2.150727     -2.107547      0.239651
   20   H     20    1.4430  1.100     -0.220934     -1.795863      0.343584
 ------------------------------------------------------------------------------
 GePol: Number of generator spheres                  =      20
 GePol: Total number of spheres                      =      20
 GePol: Number of exposed spheres                    =      20 (100.00%)
 GePol: Number of points                             =    1660
 GePol: Average weight of points                     =       0.13
 GePol: Minimum weight of points                     =   0.30D-08
 GePol: Maximum weight of points                     =    0.20577
 GePol: Number of points with low weight             =      87
 GePol: Fraction of low-weight points (<1% of avg)   =       5.24%
 GePol: Cavity surface area                          =    216.236 Ang**2
 GePol: Cavity volume                                =    216.802 Ang**3
 Leave Link  301 at Mon Feb 22 21:18:52 2021, MaxMem=   104857600 cpu:               1.8 elap:               0.1
 (Enter /sw/arch/RedHatEnterpriseServer7/EB_production/2019/software/Gaussian/g16.c01/l302.exe)
 NPDir=0 NMtPBC=     1 NCelOv=     1 NCel=       1 NClECP=     1 NCelD=      1
         NCelK=      1 NCelE2=     1 NClLst=     1 CellRange=     0.0.
 One-electron integrals computed using PRISM.
 One-electron integral symmetry used in STVInt
 PrsmSu:  requested number of processors reduced to:  28 ShMem   1 Linda.
 NBasis=   263 RedAO= T EigKep=  1.01D-05  NBF=   263
 NBsUse=   263 1.00D-06 EigRej= -1.00D+00 NBFU=   263
 Precomputing XC quadrature grid using
 IXCGrd= 4 IRadAn=           5 IRanWt=          -1 IRanGd=           0 AccXCQ= 0.00D+00.
 Generated NRdTot=       0 NPtTot=           0 NUsed=           0 NTot=          32
 NSgBfM=   269   269   269   269   269 MxSgAt=    20 MxSgA2=    20.
 Leave Link  302 at Mon Feb 22 21:18:52 2021, MaxMem=   104857600 cpu:               9.3 elap:               0.4
 (Enter /sw/arch/RedHatEnterpriseServer7/EB_production/2019/software/Gaussian/g16.c01/l303.exe)
 DipDrv:  MaxL=1.
 Leave Link  303 at Mon Feb 22 21:18:52 2021, MaxMem=   104857600 cpu:               2.6 elap:               0.1
 (Enter /sw/arch/RedHatEnterpriseServer7/EB_production/2019/software/Gaussian/g16.c01/l401.exe)
 ExpMin= 9.52D-02 ExpMax= 2.70D+04 ExpMxC= 9.22D+02 IAcc=3 IRadAn=         5 AccDes= 0.00D+00
 Harris functional with IExCor=  404 and IRadAn=       5 diagonalized for initial guess.
 HarFok:  IExCor=  404 AccDes= 0.00D+00 IRadAn=         5 IDoV= 1 UseB2=F ITyADJ=14
 ICtDFT=  3500011 ScaDFX=  1.000000  1.000000  1.000000  1.000000
 FoFCou: FMM=F IPFlag=           0 FMFlag=      100000 FMFlg1=           0
         NFxFlg=           0 DoJE=T BraDBF=F KetDBF=T FulRan=T
         wScrn=  0.000000 ICntrl=       500 IOpCl=  0 I1Cent=   200000004 NGrid=           0
         NMat0=    1 NMatS0=      1 NMatT0=    0 NMatD0=    1 NMtDS0=    0 NMtDT0=    0
 Petite list used in FoFCou.
 Harris En= -515.863858031027    
 JPrj=0 DoOrth=F DoCkMO=F.
 Leave Link  401 at Mon Feb 22 21:18:53 2021, MaxMem=   104857600 cpu:              13.2 elap:               0.5
 (Enter /sw/arch/RedHatEnterpriseServer7/EB_production/2019/software/Gaussian/g16.c01/l502.exe)
 Integral symmetry usage will be decided dynamically.
 Closed shell SCF:
 Using DIIS extrapolation, IDIIS=  1040.
 NGot=   104857600 LenX=   104695392 LenY=   104619875
 Requested convergence on RMS density matrix=1.00D-08 within 128 cycles.
 Requested convergence on MAX density matrix=1.00D-06.
 Requested convergence on             energy=1.00D-06.
 No special actions if energy rises.
 Fock matrices will be formed incrementally for  20 cycles.

 Cycle   1  Pass 1  IDiag  1:
 FoFJK:  IHMeth= 1 ICntrl=     500 DoSepK=F KAlg= 0 I1Cent=           0 FoldK=F
 IRaf= 880000000 NMat=       1 IRICut=       1 DoRegI=T DoRafI=F ISym2E= 0 IDoP0=0 IntGTp=1.
 FoFCou: FMM=F IPFlag=           0 FMFlag=      100000 FMFlg1=           0
         NFxFlg=           0 DoJE=T BraDBF=F KetDBF=F FulRan=T
         wScrn=  0.000000 ICntrl=       500 IOpCl=  0 I1Cent=           0 NGrid=           0
         NMat0=    1 NMatS0=      1 NMatT0=    0 NMatD0=    1 NMtDS0=    0 NMtDT0=    0
 Symmetry not used in FoFCou.
 Inv3:  Mode=1 IEnd=     8266800.
 Iteration    1 A*A^-1 deviation from unit magnitude is 3.55D-15 for    620.
 Iteration    1 A*A^-1 deviation from orthogonality  is 2.11D-15 for    852     98.
 Iteration    1 A^-1*A deviation from unit magnitude is 3.11D-15 for    620.
 Iteration    1 A^-1*A deviation from orthogonality  is 2.00D-15 for   1541    630.
 E= -515.393825776359    
 DIIS: error= 2.92D-02 at cycle   1 NSaved=   1.
 NSaved= 1 IEnMin= 1 EnMin= -515.393825776359     IErMin= 1 ErrMin= 2.92D-02
 ErrMax= 2.92D-02  0.00D+00 EMaxC= 1.00D-01 BMatC= 3.20D-01 BMatP= 3.20D-01
 IDIUse=3 WtCom= 7.08D-01 WtEn= 2.92D-01
 Coeff-Com:  0.100D+01
 Coeff-En:   0.100D+01
 Coeff:      0.100D+01
 Gap=     0.163 Goal=   None    Shift=    0.000
 GapD=    0.163 DampG=1.000 DampE=0.500 DampFc=0.5000 IDamp=-1.
 Damping current iteration by 5.00D-01
 RMSDP=1.57D-02 MaxDP=7.58D-01              OVMax= 2.87D-01

 Cycle   2  Pass 1  IDiag  1:
 RMSU=  7.85D-03    CP:  1.04D+00
 E= -515.432015814511     Delta-E=       -0.038190038152 Rises=F Damp=T
 DIIS: error= 1.84D-02 at cycle   2 NSaved=   2.
 NSaved= 2 IEnMin= 2 EnMin= -515.432015814511     IErMin= 2 ErrMin= 1.84D-02
 ErrMax= 1.84D-02  0.00D+00 EMaxC= 1.00D-01 BMatC= 8.31D-02 BMatP= 3.20D-01
 IDIUse=3 WtCom= 8.16D-01 WtEn= 1.84D-01
 Coeff-Com:  0.297D+00 0.703D+00
 Coeff-En:   0.439D+00 0.561D+00
 Coeff:      0.323D+00 0.677D+00
 Gap=     0.179 Goal=   None    Shift=    0.000
 RMSDP=5.55D-03 MaxDP=3.34D-01 DE=-3.82D-02 OVMax= 2.46D-01

 Cycle   3  Pass 1  IDiag  1:
 RMSU=  2.50D-03    CP:  9.96D-01  3.73D-01
 E= -515.595288298868     Delta-E=       -0.163272484356 Rises=F Damp=F
 DIIS: error= 1.93D-02 at cycle   3 NSaved=   3.
 NSaved= 3 IEnMin= 3 EnMin= -515.595288298868     IErMin= 2 ErrMin= 1.84D-02
 ErrMax= 1.93D-02  0.00D+00 EMaxC= 1.00D-01 BMatC= 9.49D-02 BMatP= 8.31D-02
 IDIUse=2 WtCom= 0.00D+00 WtEn= 1.00D+00
 Coeff-En:   0.000D+00 0.468D-01 0.953D+00
 Coeff:      0.000D+00 0.468D-01 0.953D+00
 Gap=     0.152 Goal=   None    Shift=    0.000
 RMSDP=5.82D-03 MaxDP=3.38D-01 DE=-1.63D-01 OVMax= 3.81D-01

 Cycle   4  Pass 1  IDiag  1:
 RMSU=  3.70D-03    CP:  1.01D+00  7.36D-01 -3.88D-01
 E= -515.082408466303     Delta-E=        0.512879832564 Rises=F Damp=F
 DIIS: error= 5.90D-02 at cycle   4 NSaved=   4.
 NSaved= 4 IEnMin= 3 EnMin= -515.595288298868     IErMin= 2 ErrMin= 1.84D-02
 ErrMax= 5.90D-02  0.00D+00 EMaxC= 1.00D-01 BMatC= 7.08D-01 BMatP= 8.31D-02
 IDIUse=2 WtCom= 0.00D+00 WtEn= 1.00D+00
 Coeff-En:   0.000D+00 0.000D+00 0.816D+00 0.184D+00
 Coeff:      0.000D+00 0.000D+00 0.816D+00 0.184D+00
 Gap=     0.119 Goal=   None    Shift=    0.000
 RMSDP=4.03D-03 MaxDP=2.66D-01 DE= 5.13D-01 OVMax= 1.99D-01

 Cycle   5  Pass 1  IDiag  1:
 RMSU=  7.09D-04    CP:  1.00D+00  4.03D-01  4.16D-01  4.02D-01
 E= -515.625482665676     Delta-E=       -0.543074199373 Rises=F Damp=F
 DIIS: error= 1.55D-02 at cycle   5 NSaved=   5.
 NSaved= 5 IEnMin= 5 EnMin= -515.625482665676     IErMin= 5 ErrMin= 1.55D-02
 ErrMax= 1.55D-02  0.00D+00 EMaxC= 1.00D-01 BMatC= 6.09D-02 BMatP= 8.31D-02
 IDIUse=3 WtCom= 8.45D-01 WtEn= 1.55D-01
 Coeff-Com:  0.844D-02 0.803D-01 0.369D+00-0.647D-01 0.607D+00
 Coeff-En:   0.000D+00 0.000D+00 0.417D+00 0.000D+00 0.583D+00
 Coeff:      0.713D-02 0.678D-01 0.377D+00-0.547D-01 0.603D+00
 Gap=     0.162 Goal=   None    Shift=    0.000
 RMSDP=1.04D-03 MaxDP=3.81D-02 DE=-5.43D-01 OVMax= 7.30D-02

 Cycle   6  Pass 1  IDiag  1:
 RMSU=  2.62D-04    CP:  1.00D+00  3.73D-01  6.66D-01  2.09D-01  6.67D-01
 E= -515.675102948506     Delta-E=       -0.049620282831 Rises=F Damp=F
 DIIS: error= 1.29D-03 at cycle   6 NSaved=   6.
 NSaved= 6 IEnMin= 6 EnMin= -515.675102948506     IErMin= 6 ErrMin= 1.29D-03
 ErrMax= 1.29D-03  0.00D+00 EMaxC= 1.00D-01 BMatC= 5.91D-04 BMatP= 6.09D-02
 IDIUse=3 WtCom= 9.87D-01 WtEn= 1.29D-02
 Coeff-Com: -0.177D-02 0.374D-01 0.197D+00-0.520D-01 0.386D+00 0.433D+00
 Coeff-En:   0.000D+00 0.000D+00 0.000D+00 0.000D+00 0.000D+00 0.100D+01
 Coeff:     -0.175D-02 0.369D-01 0.194D+00-0.513D-01 0.381D+00 0.440D+00
 Gap=     0.134 Goal=   None    Shift=    0.000
 RMSDP=1.53D-04 MaxDP=7.83D-03 DE=-4.96D-02 OVMax= 9.56D-03

 Cycle   7  Pass 1  IDiag  1:
 RMSU=  5.46D-05    CP:  1.00D+00  3.82D-01  6.70D-01  2.17D-01  7.07D-01
                    CP:  5.67D-01
 E= -515.675515899135     Delta-E=       -0.000412950629 Rises=F Damp=F
 DIIS: error= 5.59D-04 at cycle   7 NSaved=   7.
 NSaved= 7 IEnMin= 7 EnMin= -515.675515899135     IErMin= 7 ErrMin= 5.59D-04
 ErrMax= 5.59D-04  0.00D+00 EMaxC= 1.00D-01 BMatC= 8.12D-05 BMatP= 5.91D-04
 IDIUse=3 WtCom= 9.94D-01 WtEn= 5.59D-03
 Coeff-Com:  0.103D-02 0.184D-02 0.425D-01-0.111D-01 0.701D-01 0.209D+00
 Coeff-Com:  0.687D+00
 Coeff-En:   0.000D+00 0.000D+00 0.000D+00 0.000D+00 0.000D+00 0.104D+00
 Coeff-En:   0.896D+00
 Coeff:      0.102D-02 0.183D-02 0.423D-01-0.110D-01 0.697D-01 0.208D+00
 Coeff:      0.688D+00
 Gap=     0.134 Goal=   None    Shift=    0.000
 RMSDP=4.77D-05 MaxDP=2.14D-03 DE=-4.13D-04 OVMax= 4.41D-03

 Cycle   8  Pass 1  IDiag  1:
 RMSU=  2.51D-05    CP:  1.00D+00  3.79D-01  6.71D-01  2.14D-01  6.92D-01
                    CP:  6.60D-01  6.89D-01
 E= -515.675572261974     Delta-E=       -0.000056362839 Rises=F Damp=F
 DIIS: error= 2.61D-04 at cycle   8 NSaved=   8.
 NSaved= 8 IEnMin= 8 EnMin= -515.675572261974     IErMin= 8 ErrMin= 2.61D-04
 ErrMax= 2.61D-04  0.00D+00 EMaxC= 1.00D-01 BMatC= 1.44D-05 BMatP= 8.12D-05
 IDIUse=3 WtCom= 9.97D-01 WtEn= 2.61D-03
 Coeff-Com:  0.141D-02-0.298D-02 0.128D-01-0.204D-02 0.104D-01 0.105D+00
 Coeff-Com:  0.493D+00 0.383D+00
 Coeff-En:   0.000D+00 0.000D+00 0.000D+00 0.000D+00 0.000D+00 0.000D+00
 Coeff-En:   0.850D-01 0.915D+00
 Coeff:      0.140D-02-0.297D-02 0.127D-01-0.203D-02 0.104D-01 0.104D+00
 Coeff:      0.492D+00 0.384D+00
 Gap=     0.134 Goal=   None    Shift=    0.000
 RMSDP=2.19D-05 MaxDP=8.02D-04 DE=-5.64D-05 OVMax= 2.18D-03

 Cycle   9  Pass 1  IDiag  1:
 RMSU=  7.69D-06    CP:  1.00D+00  3.79D-01  6.74D-01  2.12D-01  6.91D-01
                    CP:  6.25D-01  7.66D-01  4.01D-01
 E= -515.675586852134     Delta-E=       -0.000014590159 Rises=F Damp=F
 DIIS: error= 5.17D-05 at cycle   9 NSaved=   9.
 NSaved= 9 IEnMin= 9 EnMin= -515.675586852134     IErMin= 9 ErrMin= 5.17D-05
 ErrMax= 5.17D-05  0.00D+00 EMaxC= 1.00D-01 BMatC= 4.63D-07 BMatP= 1.44D-05
 IDIUse=1 WtCom= 1.00D+00 WtEn= 0.00D+00
 Coeff-Com:  0.838D-03-0.169D-02 0.345D-02-0.223D-03-0.646D-03 0.379D-01
 Coeff-Com:  0.205D+00 0.203D+00 0.553D+00
 Coeff:      0.838D-03-0.169D-02 0.345D-02-0.223D-03-0.646D-03 0.379D-01
 Coeff:      0.205D+00 0.203D+00 0.553D+00
 Gap=     0.134 Goal=   None    Shift=    0.000
 RMSDP=4.66D-06 MaxDP=2.56D-04 DE=-1.46D-05 OVMax= 3.35D-04

 Cycle  10  Pass 1  IDiag  1:
 RMSU=  2.07D-06    CP:  1.00D+00  3.79D-01  6.74D-01  2.12D-01  6.90D-01
                    CP:  6.32D-01  7.66D-01  4.49D-01  7.77D-01
 E= -515.675587312617     Delta-E=       -0.000000460483 Rises=F Damp=F
 DIIS: error= 1.97D-05 at cycle  10 NSaved=  10.
 NSaved=10 IEnMin=10 EnMin= -515.675587312617     IErMin=10 ErrMin= 1.97D-05
 ErrMax= 1.97D-05  0.00D+00 EMaxC= 1.00D-01 BMatC= 7.29D-08 BMatP= 4.63D-07
 IDIUse=1 WtCom= 1.00D+00 WtEn= 0.00D+00
 Coeff-Com:  0.386D-03-0.610D-03 0.661D-03 0.403D-04-0.152D-02 0.106D-01
 Coeff-Com:  0.652D-01 0.792D-01 0.352D+00 0.494D+00
 Coeff:      0.386D-03-0.610D-03 0.661D-03 0.403D-04-0.152D-02 0.106D-01
 Coeff:      0.652D-01 0.792D-01 0.352D+00 0.494D+00
 Gap=     0.134 Goal=   None    Shift=    0.000
 RMSDP=1.23D-06 MaxDP=6.76D-05 DE=-4.60D-07 OVMax= 1.19D-04

 Cycle  11  Pass 1  IDiag  1:
 RMSU=  6.80D-07    CP:  1.00D+00  3.79D-01  6.74D-01  2.12D-01  6.90D-01
                    CP:  6.31D-01  7.70D-01  4.48D-01  8.06D-01  6.73D-01
 E= -515.675587360594     Delta-E=       -0.000000047977 Rises=F Damp=F
 DIIS: error= 4.35D-06 at cycle  11 NSaved=  11.
 NSaved=11 IEnMin=11 EnMin= -515.675587360594     IErMin=11 ErrMin= 4.35D-06
 ErrMax= 4.35D-06  0.00D+00 EMaxC= 1.00D-01 BMatC= 2.80D-09 BMatP= 7.29D-08
 IDIUse=1 WtCom= 1.00D+00 WtEn= 0.00D+00
 Coeff-Com:  0.162D-03-0.239D-03 0.190D-03 0.354D-04-0.715D-03 0.346D-02
 Coeff-Com:  0.222D-01 0.300D-01 0.149D+00 0.257D+00 0.538D+00
 Coeff:      0.162D-03-0.239D-03 0.190D-03 0.354D-04-0.715D-03 0.346D-02
 Coeff:      0.222D-01 0.300D-01 0.149D+00 0.257D+00 0.538D+00
 Gap=     0.134 Goal=   None    Shift=    0.000
 RMSDP=2.77D-07 MaxDP=1.22D-05 DE=-4.80D-08 OVMax= 2.82D-05

 Cycle  12  Pass 1  IDiag  1:
 RMSU=  1.58D-07    CP:  1.00D+00  3.79D-01  6.74D-01  2.12D-01  6.90D-01
                    CP:  6.31D-01  7.70D-01  4.48D-01  8.07D-01  6.89D-01
                    CP:  7.72D-01
 E= -515.675587346067     Delta-E=        0.000000014527 Rises=F Damp=F
 DIIS: error= 1.32D-06 at cycle  12 NSaved=  12.
 NSaved=12 IEnMin=11 EnMin= -515.675587360594     IErMin=12 ErrMin= 1.32D-06
 ErrMax= 1.32D-06  0.00D+00 EMaxC= 1.00D-01 BMatC= 4.29D-10 BMatP= 2.80D-09
 IDIUse=1 WtCom= 1.00D+00 WtEn= 0.00D+00
 Coeff-Com:  0.455D-04-0.626D-04 0.398D-04 0.116D-04-0.185D-03 0.644D-03
 Coeff-Com:  0.425D-02 0.709D-02 0.408D-01 0.888D-01 0.330D+00 0.529D+00
 Coeff:      0.455D-04-0.626D-04 0.398D-04 0.116D-04-0.185D-03 0.644D-03
 Coeff:      0.425D-02 0.709D-02 0.408D-01 0.888D-01 0.330D+00 0.529D+00
 Gap=     0.134 Goal=   None    Shift=    0.000
 RMSDP=9.74D-08 MaxDP=2.75D-06 DE= 1.45D-08 OVMax= 9.22D-06

 Cycle  13  Pass 1  IDiag  1:
 RMSU=  5.45D-08    CP:  1.00D+00  3.79D-01  6.74D-01  2.12D-01  6.90D-01
                    CP:  6.31D-01  7.69D-01  4.49D-01  8.10D-01  6.86D-01
                    CP:  7.94D-01  6.87D-01
 E= -515.675587346478     Delta-E=       -0.000000000412 Rises=F Damp=F
 DIIS: error= 1.72D-07 at cycle  13 NSaved=  13.
 NSaved=13 IEnMin=11 EnMin= -515.675587360594     IErMin=13 ErrMin= 1.72D-07
 ErrMax= 1.72D-07  0.00D+00 EMaxC= 1.00D-01 BMatC= 1.55D-11 BMatP= 4.29D-10
 IDIUse=1 WtCom= 1.00D+00 WtEn= 0.00D+00
 Coeff-Com:  0.137D-04-0.152D-04 0.428D-05 0.350D-05-0.560D-04 0.890D-04
 Coeff-Com:  0.732D-03 0.168D-02 0.117D-01 0.301D-01 0.133D+00 0.255D+00
 Coeff-Com:  0.568D+00
 Coeff:      0.137D-04-0.152D-04 0.428D-05 0.350D-05-0.560D-04 0.890D-04
 Coeff:      0.732D-03 0.168D-02 0.117D-01 0.301D-01 0.133D+00 0.255D+00
 Coeff:      0.568D+00
 Gap=     0.134 Goal=   None    Shift=    0.000
 RMSDP=3.04D-08 MaxDP=1.29D-06 DE=-4.12D-10 OVMax= 2.35D-06

 Cycle  14  Pass 1  IDiag  1:
 RMSU=  2.15D-08    CP:  1.00D+00  3.79D-01  6.74D-01  2.12D-01  6.90D-01
                    CP:  6.31D-01  7.69D-01  4.49D-01  8.10D-01  6.88D-01
                    CP:  8.08D-01  6.91D-01  8.39D-01
 E= -515.675587346492     Delta-E=       -0.000000000013 Rises=F Damp=F
 DIIS: error= 1.28D-07 at cycle  14 NSaved=  14.
 NSaved=14 IEnMin=11 EnMin= -515.675587360594     IErMin=14 ErrMin= 1.28D-07
 ErrMax= 1.28D-07  0.00D+00 EMaxC= 1.00D-01 BMatC= 3.99D-12 BMatP= 1.55D-11
 IDIUse=1 WtCom= 1.00D+00 WtEn= 0.00D+00
 Coeff-Com:  0.290D-05-0.304D-05-0.247D-06 0.899D-06-0.981D-05-0.138D-04
 Coeff-Com: -0.295D-04 0.162D-03 0.214D-02 0.763D-02 0.405D-01 0.894D-01
 Coeff-Com:  0.360D+00 0.501D+00
 Coeff:      0.290D-05-0.304D-05-0.247D-06 0.899D-06-0.981D-05-0.138D-04
 Coeff:     -0.295D-04 0.162D-03 0.214D-02 0.763D-02 0.405D-01 0.894D-01
 Coeff:      0.360D+00 0.501D+00
 Gap=     0.134 Goal=   None    Shift=    0.000
 RMSDP=1.06D-08 MaxDP=3.00D-07 DE=-1.34D-11 OVMax= 1.24D-06

 Cycle  15  Pass 1  IDiag  1:
 RMSU=  6.74D-09    CP:  1.00D+00  3.79D-01  6.74D-01  2.12D-01  6.90D-01
                    CP:  6.31D-01  7.69D-01  4.49D-01  8.10D-01  6.89D-01
                    CP:  8.07D-01  6.91D-01  8.61D-01  7.00D-01
 E= -515.675587346495     Delta-E=       -0.000000000003 Rises=F Damp=F
 DIIS: error= 5.35D-08 at cycle  15 NSaved=  15.
 NSaved=15 IEnMin=11 EnMin= -515.675587360594     IErMin=15 ErrMin= 5.35D-08
 ErrMax= 5.35D-08  0.00D+00 EMaxC= 1.00D-01 BMatC= 4.60D-13 BMatP= 3.99D-12
 IDIUse=1 WtCom= 1.00D+00 WtEn= 0.00D+00
 Coeff-Com:  0.829D-06-0.106D-05 0.280D-06 0.254D-06-0.147D-05-0.945D-05
 Coeff-Com: -0.457D-04-0.302D-05 0.513D-03 0.248D-02 0.144D-01 0.337D-01
 Coeff-Com:  0.171D+00 0.319D+00 0.459D+00
 Coeff:      0.829D-06-0.106D-05 0.280D-06 0.254D-06-0.147D-05-0.945D-05
 Coeff:     -0.457D-04-0.302D-05 0.513D-03 0.248D-02 0.144D-01 0.337D-01
 Coeff:      0.171D+00 0.319D+00 0.459D+00
 Gap=     0.134 Goal=   None    Shift=    0.000
 RMSDP=3.80D-09 MaxDP=1.05D-07 DE=-3.07D-12 OVMax= 4.38D-07

 Error on total polarization charges =  0.01351
 SCF Done:  E(RB-P86) =  -515.675587346     A.U. after   15 cycles
            NFock= 15  Conv=0.38D-08     -V/T= 2.0033
 KE= 5.139944327601D+02 PE=-2.348611228385D+03 EE= 7.467369452497D+02
 Leave Link  502 at Mon Feb 22 21:19:08 2021, MaxMem=   104857600 cpu:             485.5 elap:              15.5
 (Enter /sw/arch/RedHatEnterpriseServer7/EB_production/2019/software/Gaussian/g16.c01/l601.exe)
 Copying SCF densities to generalized density rwf, IOpCl= 0 IROHF=0.

 **********************************************************************

            Population analysis using the SCF Density.

 **********************************************************************

 Orbital symmetries:
       Occupied  (A) (A) (A) (A) (A) (A) (A) (A) (A) (A) (A) (A)
                 (A) (A) (A) (A) (A) (A) (A) (A) (A) (A) (A) (A)
                 (A) (A) (A) (A) (A) (A) (A) (A) (A) (A) (A) (A)
                 (A) (A) (A) (A)
       Virtual   (A) (A) (A) (A) (A) (A) (A) (A) (A) (A) (A) (A)
                 (A) (A) (A) (A) (A) (A) (A) (A) (A) (A) (A) (A)
                 (A) (A) (A) (A) (A) (A) (A) (A) (A) (A) (A) (A)
                 (A) (A) (A) (A) (A) (A) (A) (A) (A) (A) (A) (A)
                 (A) (A) (A) (A) (A) (A) (A) (A) (A) (A) (A) (A)
                 (A) (A) (A) (A) (A) (A) (A) (A) (A) (A) (A) (A)
                 (A) (A) (A) (A) (A) (A) (A) (A) (A) (A) (A) (A)
                 (A) (A) (A) (A) (A) (A) (A) (A) (A) (A) (A) (A)
                 (A) (A) (A) (A) (A) (A) (A) (A) (A) (A) (A) (A)
                 (A) (A) (A) (A) (A) (A) (A) (A) (A) (A) (A) (A)
                 (A) (A) (A) (A) (A) (A) (A) (A) (A) (A) (A) (A)
                 (A) (A) (A) (A) (A) (A) (A) (A) (A) (A) (A) (A)
                 (A) (A) (A) (A) (A) (A) (A) (A) (A) (A) (A) (A)
                 (A) (A) (A) (A) (A) (A) (A) (A) (A) (A) (A) (A)
                 (A) (A) (A) (A) (A) (A) (A) (A) (A) (A) (A) (A)
                 (A) (A) (A) (A) (A) (A) (A) (A) (A) (A) (A) (A)
                 (A) (A) (A) (A) (A) (A) (A) (A) (A) (A) (A) (A)
                 (A) (A) (A) (A) (A) (A) (A) (A) (A) (A) (A) (A)
                 (A) (A) (A) (A) (A) (A) (A)
 The electronic state is 1-A.
 Alpha  occ. eigenvalues --  -18.80892 -18.74179 -14.04646 -10.00166  -9.96482
 Alpha  occ. eigenvalues --   -9.94961  -9.90708  -9.90460  -9.90314  -9.90190
 Alpha  occ. eigenvalues --   -9.89914  -0.99027  -0.95640  -0.88277  -0.77943
 Alpha  occ. eigenvalues --   -0.70613  -0.69486  -0.66153  -0.59277  -0.58461
 Alpha  occ. eigenvalues --   -0.53383  -0.51151  -0.50405  -0.44329  -0.43023
 Alpha  occ. eigenvalues --   -0.41852  -0.41543  -0.39362  -0.38482  -0.37876
 Alpha  occ. eigenvalues --   -0.36742  -0.35749  -0.35439  -0.34681  -0.31494
 Alpha  occ. eigenvalues --   -0.30920  -0.26412  -0.24117  -0.21825  -0.19052
 Alpha virt. eigenvalues --   -0.05679  -0.05409  -0.00425   0.01982   0.02525
 Alpha virt. eigenvalues --    0.05771   0.06898   0.08498   0.08759   0.09263
 Alpha virt. eigenvalues --    0.09626   0.11376   0.11965   0.12445   0.12921
 Alpha virt. eigenvalues --    0.14437   0.15600   0.17248   0.17738   0.19047
 Alpha virt. eigenvalues --    0.19990   0.20351   0.20474   0.21591   0.22110
 Alpha virt. eigenvalues --    0.22853   0.23561   0.25125   0.26872   0.27248
 Alpha virt. eigenvalues --    0.27881   0.29076   0.29211   0.31284   0.32046
 Alpha virt. eigenvalues --    0.33576   0.33893   0.34326   0.35080   0.36308
 Alpha virt. eigenvalues --    0.37414   0.38446   0.38812   0.40082   0.41043
 Alpha virt. eigenvalues --    0.41747   0.42247   0.43236   0.44282   0.44777
 Alpha virt. eigenvalues --    0.45265   0.46082   0.46627   0.48096   0.48283
 Alpha virt. eigenvalues --    0.49505   0.51047   0.51746   0.53097   0.54585
 Alpha virt. eigenvalues --    0.57211   0.57741   0.58320   0.59543   0.62996
 Alpha virt. eigenvalues --    0.63161   0.64226   0.65733   0.66373   0.71129
 Alpha virt. eigenvalues --    0.72361   0.73553   0.74768   0.79409   0.82950
 Alpha virt. eigenvalues --    0.83948   0.88115   1.08708   1.09665   1.15689
 Alpha virt. eigenvalues --    1.16341   1.17294   1.17619   1.18566   1.20223
 Alpha virt. eigenvalues --    1.21537   1.23561   1.24105   1.24616   1.25560
 Alpha virt. eigenvalues --    1.28329   1.28536   1.30308   1.30576   1.32421
 Alpha virt. eigenvalues --    1.34162   1.36303   1.36336   1.38096   1.38451
 Alpha virt. eigenvalues --    1.38865   1.39794   1.40986   1.42987   1.43151
 Alpha virt. eigenvalues --    1.44575   1.45002   1.45607   1.45785   1.46446
 Alpha virt. eigenvalues --    1.46828   1.48053   1.52395   1.53095   1.53279
 Alpha virt. eigenvalues --    1.55613   1.56954   1.59517   1.68634   1.69787
 Alpha virt. eigenvalues --    1.70163   1.72049   1.73247   1.73769   1.74664
 Alpha virt. eigenvalues --    1.76207   1.78959   1.79870   1.82736   1.83195
 Alpha virt. eigenvalues --    1.84390   1.87189   1.89370   1.91092   1.92076
 Alpha virt. eigenvalues --    1.95097   1.97768   1.98920   2.00355   2.06440
 Alpha virt. eigenvalues --    2.09876   2.10812   2.11342   2.12096   2.13312
 Alpha virt. eigenvalues --    2.15470   2.18747   2.19680   2.21200   2.22413
 Alpha virt. eigenvalues --    2.23474   2.24063   2.25461   2.28202   2.30011
 Alpha virt. eigenvalues --    2.31292   2.31492   2.34619   2.38759   2.38881
 Alpha virt. eigenvalues --    2.41804   2.45529   2.46029   2.50118   2.50933
 Alpha virt. eigenvalues --    2.51289   2.52765   2.54461   2.55023   2.57408
 Alpha virt. eigenvalues --    2.59541   2.60969   2.61182   2.63015   2.64052
 Alpha virt. eigenvalues --    2.66891   2.71310   2.72816   2.73586   2.76673
 Alpha virt. eigenvalues --    2.79648   2.81715   2.84179   2.84629   2.87492
 Alpha virt. eigenvalues --    2.89705   2.92724   2.98074   2.99193   3.01642
 Alpha virt. eigenvalues --    3.05342   3.07079   3.07288   3.09928   3.10432
 Alpha virt. eigenvalues --    3.14717   3.15845   3.19640   3.22240   3.23403
 Alpha virt. eigenvalues --    3.26143   3.27561   3.33563   3.35864   3.39277
 Alpha virt. eigenvalues --    3.45977   3.50025   3.69231   3.86970   3.98480
 Alpha virt. eigenvalues --    4.13665   4.19597  21.18449  21.64453  21.70604
 Alpha virt. eigenvalues --   21.72231  21.83602  21.84863  21.87051  21.96747
 Alpha virt. eigenvalues --   31.51520  43.13698  43.14965
          Condensed to atoms (all electrons):
               1          2          3          4          5          6
     1  C    5.459667   0.190476  -0.128967  -0.175467  -0.008664  -0.000885
     2  C    0.190476   4.936991   0.635190   0.234748  -0.126885   0.032054
     3  O   -0.128967   0.635190   8.018615  -0.128224  -0.033731   0.001491
     4  N   -0.175467   0.234748  -0.128224   6.634704   0.289663  -0.017996
     5  C   -0.008664  -0.126885  -0.033731   0.289663   5.374291   0.149602
     6  C   -0.000885   0.032054   0.001491  -0.017996   0.149602   5.525797
     7  C    0.000087  -0.002788  -0.000096   0.006582   0.064202   0.322678
     8  C    0.000084   0.001429   0.000240   0.002529  -0.152059   0.028922
     9  O    0.000000   0.000003   0.000000  -0.000007  -0.002937   0.010345
    10  C   -0.000565   0.002175  -0.001156   0.015603   0.069970  -0.065564
    11  C    0.006753  -0.023238   0.003902  -0.055154   0.343344  -0.144294
    12  H    0.349309  -0.014086   0.002208   0.010382   0.000300   0.001165
    13  H    0.383376  -0.034170   0.013468   0.010069  -0.000089  -0.000007
    14  H    0.371353  -0.045236   0.003666   0.016791   0.003275  -0.001147
    15  H    0.010245  -0.020154   0.004854   0.360064  -0.044101  -0.010007
    16  H   -0.000076   0.000373  -0.000098   0.005528  -0.111371   0.461836
    17  H   -0.000002  -0.000046  -0.000002  -0.000445   0.023762  -0.052399
    18  H    0.000000   0.000002   0.000000   0.000000  -0.000405  -0.001369
    19  H   -0.000014  -0.000237  -0.000216  -0.000196   0.013406   0.001735
    20  H    0.001708  -0.003816   0.025195  -0.008156  -0.041922   0.015273
               7          8          9         10         11         12
     1  C    0.000087   0.000084   0.000000  -0.000565   0.006753   0.349309
     2  C   -0.002788   0.001429   0.000003   0.002175  -0.023238  -0.014086
     3  O   -0.000096   0.000240   0.000000  -0.001156   0.003902   0.002208
     4  N    0.006582   0.002529  -0.000007   0.015603  -0.055154   0.010382
     5  C    0.064202  -0.152059  -0.002937   0.069970   0.343344   0.000300
     6  C    0.322678   0.028922   0.010345  -0.065564  -0.144294   0.001165
     7  C    5.250813   0.371793  -0.083860  -0.091296  -0.046321  -0.000020
     8  C    0.371793   5.108456   0.374854   0.208132   0.116219   0.000000
     9  O   -0.083860   0.374854   7.782500  -0.122991   0.023233  -0.000000
    10  C   -0.091296   0.208132  -0.122991   5.820764  -0.029644   0.000031
    11  C   -0.046321   0.116219   0.023233  -0.029644   5.641206  -0.000898
    12  H   -0.000020   0.000000  -0.000000   0.000031  -0.000898   0.521786
    13  H   -0.000005   0.000001  -0.000000  -0.000002   0.000050  -0.012767
    14  H    0.000038  -0.000010  -0.000000  -0.000007   0.000087  -0.020869
    15  H    0.003969  -0.000439   0.000000  -0.000224   0.006163  -0.002069
    16  H   -0.041679   0.021604  -0.000087  -0.002369   0.009084   0.000110
    17  H    0.444739  -0.089196   0.003339   0.018933  -0.006016  -0.000000
    18  H    0.013314  -0.023279   0.303846  -0.030232   0.006814   0.000000
    19  H    0.006534  -0.069009  -0.006888   0.425102  -0.024927   0.000000
    20  H   -0.001659   0.008249  -0.000025  -0.026755   0.394082  -0.000033
              13         14         15         16         17         18
     1  C    0.383376   0.371353   0.010245  -0.000076  -0.000002   0.000000
     2  C   -0.034170  -0.045236  -0.020154   0.000373  -0.000046   0.000002
     3  O    0.013468   0.003666   0.004854  -0.000098  -0.000002   0.000000
     4  N    0.010069   0.016791   0.360064   0.005528  -0.000445   0.000000
     5  C   -0.000089   0.003275  -0.044101  -0.111371   0.023762  -0.000405
     6  C   -0.000007  -0.001147  -0.010007   0.461836  -0.052399  -0.001369
     7  C   -0.000005   0.000038   0.003969  -0.041679   0.444739   0.013314
     8  C    0.000001  -0.000010  -0.000439   0.021604  -0.089196  -0.023279
     9  O   -0.000000  -0.000000   0.000000  -0.000087   0.003339   0.303846
    10  C   -0.000002  -0.000007  -0.000224  -0.002369   0.018933  -0.030232
    11  C    0.000050   0.000087   0.006163   0.009084  -0.006016   0.006814
    12  H   -0.012767  -0.020869  -0.002069   0.000110  -0.000000   0.000000
    13  H    0.490955  -0.015364   0.000207   0.000005   0.000000   0.000000
    14  H   -0.015364   0.527605  -0.001975  -0.000049   0.000001  -0.000000
    15  H    0.000207  -0.001975   0.403845   0.000793  -0.000023  -0.000000
    16  H    0.000005  -0.000049   0.000793   0.509103  -0.009700   0.000033
    17  H    0.000000   0.000001  -0.000023  -0.009700   0.513039  -0.000787
    18  H    0.000000  -0.000000  -0.000000   0.000033  -0.000787   0.425883
    19  H    0.000000   0.000000   0.000018   0.000003  -0.000140   0.000143
    20  H    0.000045  -0.000202  -0.000516  -0.000095  -0.000033  -0.000060
              19         20
     1  C   -0.000014   0.001708
     2  C   -0.000237  -0.003816
     3  O   -0.000216   0.025195
     4  N   -0.000196  -0.008156
     5  C    0.013406  -0.041922
     6  C    0.001735   0.015273
     7  C    0.006534  -0.001659
     8  C   -0.069009   0.008249
     9  O   -0.006888  -0.000025
    10  C    0.425102  -0.026755
    11  C   -0.024927   0.394082
    12  H    0.000000  -0.000033
    13  H    0.000000   0.000045
    14  H    0.000000  -0.000202
    15  H    0.000018  -0.000516
    16  H    0.000003  -0.000095
    17  H   -0.000140  -0.000033
    18  H    0.000143  -0.000060
    19  H    0.499424  -0.004851
    20  H   -0.004851   0.480216
 Mulliken charges:
               1
     1  C   -0.458419
     2  C    0.237215
     3  O   -0.416339
     4  N   -0.201019
     5  C    0.190347
     6  C   -0.257230
     7  C   -0.217025
     8  C    0.091480
     9  O   -0.281326
    10  C   -0.189904
    11  C   -0.220443
    12  H    0.165450
    13  H    0.164229
    14  H    0.162042
    15  H    0.289351
    16  H    0.157052
    17  H    0.154976
    18  H    0.306098
    19  H    0.160112
    20  H    0.163355
 Sum of Mulliken charges =  -0.00000
 Mulliken charges with hydrogens summed into heavy atoms:
               1
     1  C    0.033301
     2  C    0.237215
     3  O   -0.416339
     4  N    0.088332
     5  C    0.190347
     6  C   -0.100179
     7  C   -0.062049
     8  C    0.091480
     9  O    0.024772
    10  C   -0.029792
    11  C   -0.057088
 Electronic spatial extent (au):  <R**2>=           2235.5860
 Charge=              0.0000 electrons
 Dipole moment (field-independent basis, Debye):
    X=             -0.0859    Y=              3.3115    Z=              1.1848  Tot=              3.5181
 Quadrupole moment (field-independent basis, Debye-Ang):
   XX=            -59.5696   YY=            -58.6067   ZZ=            -67.8643
   XY=            -19.4222   XZ=             -2.7197   YZ=             -1.6813
 Traceless Quadrupole moment (field-independent basis, Debye-Ang):
   XX=              2.4439   YY=              3.4069   ZZ=             -5.8508
   XY=            -19.4222   XZ=             -2.7197   YZ=             -1.6813
 Octapole moment (field-independent basis, Debye-Ang**2):
  XXX=            -24.5651  YYY=             10.2082  ZZZ=             -0.5602  XYY=             27.1243
  XXY=             -2.1800  XXZ=              6.2521  XZZ=             -5.6474  YZZ=             -0.1836
  YYZ=              2.7803  XYZ=              2.0195
 Hexadecapole moment (field-independent basis, Debye-Ang**3):
 XXXX=          -2288.1549 YYYY=           -396.3665 ZZZZ=            -88.5081 XXXY=           -207.9134
 XXXZ=            -13.9232 YYYX=            -51.7628 YYYZ=             -6.2144 ZZZX=             -2.5715
 ZZZY=              2.3717 XXYY=           -425.3224 XXZZ=           -420.6491 YYZZ=            -92.1391
 XXYZ=             -8.6391 YYXZ=             -7.9715 ZZXY=             -7.6694
 N-N= 5.722042630286D+02 E-N=-2.348611222827D+03  KE= 5.139944327601D+02
 No NMR shielding tensors so no spin-rotation constants.
 Leave Link  601 at Mon Feb 22 21:19:09 2021, MaxMem=   104857600 cpu:               7.3 elap:               0.3
 (Enter /sw/arch/RedHatEnterpriseServer7/EB_production/2019/software/Gaussian/g16.c01/l701.exe)
 ... and contract with generalized density number  0.
 Compute integral first derivatives.
 R6Disp: Adding Grimme-D3 dispersion energy 1st derivatives to the gradient.
 PrsmSu:  requested number of processors reduced to:  29 ShMem   1 Linda.
 D1PCM: PCM CHGder 1st derivatives, ID1Alg=3 FixD1E=F DoIter=F DoCFld=F I1PDM=0.
 GePol: Maximum number of non-zero 1st derivatives   =     207
 CoulSu:  requested number of processors reduced to:  29 ShMem   1 Linda.
 CoulSu:  requested number of processors reduced to:  30 ShMem   1 Linda.
 Leave Link  701 at Mon Feb 22 21:19:10 2021, MaxMem=   104857600 cpu:              27.9 elap:               1.0
 (Enter /sw/arch/RedHatEnterpriseServer7/EB_production/2019/software/Gaussian/g16.c01/l702.exe)
 L702 exits ... SP integral derivatives will be done elsewhere.
 Leave Link  702 at Mon Feb 22 21:19:10 2021, MaxMem=   104857600 cpu:               0.8 elap:               0.1
 (Enter /sw/arch/RedHatEnterpriseServer7/EB_production/2019/software/Gaussian/g16.c01/l703.exe)
 Integral derivatives from FoFJK, PRISM(SPDF).
 Compute integral first derivatives, UseDBF=F ICtDFT=           0.
 Calling FoFJK, ICntrl=      2527 FMM=F ISym2X=0 I1Cent= 0 IOpClX= 0 NMat=1 NMatS=1 NMatT=0.
 FoFJK:  IHMeth= 1 ICntrl=    2527 DoSepK=F KAlg= 0 I1Cent=           0 FoldK=F
 IRaf=         0 NMat=       1 IRICut=       1 DoRegI=T DoRafI=F ISym2E= 0 IDoP0=0 IntGTp=1.
 FoFCou: FMM=F IPFlag=           0 FMFlag=      100000 FMFlg1=         800
         NFxFlg=           0 DoJE=F BraDBF=F KetDBF=F FulRan=T
         wScrn=  0.000000 ICntrl=      2527 IOpCl=  0 I1Cent=           0 NGrid=           0
         NMat0=    1 NMatS0=      1 NMatT0=    0 NMatD0=    1 NMtDS0=    0 NMtDT0=    0
 Symmetry not used in FoFCou.
 Leave Link  703 at Mon Feb 22 21:19:12 2021, MaxMem=   104857600 cpu:              64.3 elap:               2.1
 (Enter /sw/arch/RedHatEnterpriseServer7/EB_production/2019/software/Gaussian/g16.c01/l716.exe)
 Dipole        =-3.38077895D-02 1.30285571D+00 4.66124903D-01
 ***** Axes restored to original set *****
 -------------------------------------------------------------------
 Center     Atomic                   Forces (Hartrees/Bohr)
 Number     Number              X              Y              Z
 -------------------------------------------------------------------
      1        6          -0.002233396    0.016995322    0.010801713
      2        6           0.001073824   -0.018990543   -0.038718235
      3        8           0.000710041   -0.008105044    0.010896741
      4        7          -0.011408762    0.009238046   -0.037419756
      5        6           0.007889069   -0.039172638    0.006259132
      6        6          -0.011178500   -0.050830614   -0.037948554
      7        6          -0.025480388    0.019725223   -0.048102132
      8        6          -0.004307283    0.019282548   -0.005438260
      9        8           0.001908340   -0.014928917   -0.002441027
     10        6           0.015489133    0.050341057    0.042602820
     11        6           0.024923533   -0.014590453    0.049480554
     12        1           0.003255831    0.005771304    0.004407109
     13        1           0.000156232   -0.001836661   -0.002879977
     14        1          -0.003665078    0.005381125    0.006164934
     15        1           0.002678646    0.025451319    0.039021350
     16        1           0.013094994    0.037526304    0.036653060
     17        1           0.022788734   -0.014665919    0.046567026
     18        1           0.002591601   -0.004784568    0.006802292
     19        1          -0.014374794   -0.038364121   -0.038333061
     20        1          -0.023911778    0.016557228   -0.048375728
 -------------------------------------------------------------------
 Cartesian Forces:  Max     0.050830614 RMS     0.024597368
 Leave Link  716 at Mon Feb 22 21:19:12 2021, MaxMem=   104857600 cpu:               0.9 elap:               0.1
 (Enter /sw/arch/RedHatEnterpriseServer7/EB_production/2019/software/Gaussian/g16.c01/l103.exe)

 GradGradGradGradGradGradGradGradGradGradGradGradGradGradGradGradGradGrad
 Berny optimization.
 FormGI is forming the generalized inverse of G from B-inverse, IUseBI=4.
 GSVD:  received Info=                   1 from GESDD.
 Internal  Forces:  Max     0.056304833 RMS     0.014334599
 Search for a local minimum.
 Step number   1 out of a maximum of  101
 All quantities printed in internal units (Hartrees-Bohrs-Radians)
 RMS Force = .14335D-01 SwitMx=.10000D-02 MixMth= 1
 Mixed Optimization -- RFO/linear search
 Second derivative matrix not updated -- first step.
 ITU=  0
     Eigenvalues ---    0.01152   0.01592   0.01896   0.01927   0.01954
     Eigenvalues ---    0.01968   0.01976   0.01990   0.02000   0.02006
     Eigenvalues ---    0.02048   0.02113   0.02147   0.02180   0.02274
     Eigenvalues ---    0.07566   0.07695   0.15997   0.15998   0.16000
     Eigenvalues ---    0.16000   0.16000   0.16000   0.16000   0.16000
     Eigenvalues ---    0.16000   0.21999   0.22001   0.22967   0.23999
     Eigenvalues ---    0.24995   0.24996   0.25000   0.25000   0.34625
     Eigenvalues ---    0.34711   0.34748   0.35646   0.40202   0.40388
     Eigenvalues ---    0.43454   0.43724   0.43821   0.43969   0.43997
     Eigenvalues ---    0.44476   0.44540   0.44563   0.51329   0.51363
     Eigenvalues ---    0.52325   0.53173   0.53769   0.82142
 RFO step:  Lambda=-4.06726205D-02 EMin= 1.15235925D-02
 Linear search not attempted -- first point.
 Maximum step size (   0.300) exceeded in Quadratic search.
    -- Step size scaled by   0.982
 Iteration  1 RMS(Cart)=  0.05040779 RMS(Int)=  0.00103475
 Iteration  2 RMS(Cart)=  0.00127520 RMS(Int)=  0.00008747
 Iteration  3 RMS(Cart)=  0.00000084 RMS(Int)=  0.00008747
 ITry= 1 IFail=0 DXMaxC= 1.72D-01 DCOld= 1.00D+10 DXMaxT= 3.00D-01 DXLimC= 3.00D+00 Rises=F
 Variable       Old X    -DE/DX   Delta X   Delta X   Delta X     New X
                                 (Linear)    (Quad)   (Total)
    R1        2.77939   0.02803   0.00000   0.06929   0.06929   2.84867
    R2        2.06288   0.00677   0.00000   0.01718   0.01718   2.08006
    R3        2.06147   0.00175   0.00000   0.00442   0.00442   2.06588
    R4        2.06087   0.00756   0.00000   0.01911   0.01911   2.07998
    R5        2.36781  -0.00678   0.00000  -0.00771  -0.00771   2.36009
    R6        2.57589   0.00744   0.00000   0.01295   0.01295   2.58885
    R7        2.58548   0.03561   0.00000   0.06310   0.06310   2.64858
    R8        1.83493   0.04666   0.00000   0.08001   0.08001   1.91494
    R9        2.67080  -0.00037   0.00000  -0.00088  -0.00088   2.66993
   R10        2.67819  -0.00931   0.00000  -0.01961  -0.01961   2.65858
   R11        2.65825  -0.00915   0.00000  -0.01844  -0.01845   2.63981
   R12        1.93486   0.05406   0.00000   0.11102   0.11102   2.04588
   R13        2.65670  -0.00366   0.00000  -0.00721  -0.00721   2.64949
   R14        1.93369   0.05387   0.00000   0.11041   0.11041   2.04411
   R15        2.56243   0.02068   0.00000   0.03510   0.03510   2.59752
   R16        2.66004  -0.00090   0.00000  -0.00171  -0.00171   2.65832
   R17        1.85214  -0.00387   0.00000  -0.00685  -0.00685   1.84530
   R18        2.65936  -0.00678   0.00000  -0.01375  -0.01375   2.64561
   R19        1.93158   0.05609   0.00000   0.11455   0.11455   2.04613
   R20        1.92486   0.05630   0.00000   0.11364   0.11364   2.03850
    A1        1.91529   0.00478   0.00000   0.02286   0.02278   1.93807
    A2        1.93675  -0.00582   0.00000  -0.02841  -0.02823   1.90851
    A3        1.91285   0.00586   0.00000   0.02914   0.02908   1.94193
    A4        1.89863   0.00014   0.00000  -0.00022  -0.00008   1.89855
    A5        1.90552  -0.00538   0.00000  -0.02636  -0.02666   1.87886
    A6        1.89440   0.00026   0.00000   0.00229   0.00249   1.89688
    A7        2.06661   0.02027   0.00000   0.06852   0.06850   2.13510
    A8        2.05789  -0.01290   0.00000  -0.04350  -0.04353   2.01436
    A9        2.15850  -0.00735   0.00000  -0.02477  -0.02480   2.13370
   A10        2.26707  -0.00640   0.00000  -0.02412  -0.02412   2.24295
   A11        2.00885   0.00279   0.00000   0.01004   0.01004   2.01889
   A12        2.00699   0.00361   0.00000   0.01404   0.01403   2.02102
   A13        2.02258   0.01072   0.00000   0.03646   0.03646   2.05904
   A14        2.19510  -0.01147   0.00000  -0.03846  -0.03846   2.15664
   A15        2.06534   0.00075   0.00000   0.00203   0.00203   2.06738
   A16        2.11266   0.00115   0.00000   0.00413   0.00413   2.11679
   A17        2.09928  -0.00120   0.00000  -0.00512  -0.00512   2.09416
   A18        2.07123   0.00005   0.00000   0.00100   0.00100   2.07223
   A19        2.09506  -0.00073   0.00000  -0.00246  -0.00247   2.09259
   A20        2.09137   0.00114   0.00000   0.00503   0.00503   2.09640
   A21        2.09675  -0.00041   0.00000  -0.00257  -0.00257   2.09419
   A22        2.08365  -0.00664   0.00000  -0.02261  -0.02261   2.06104
   A23        2.08817  -0.00193   0.00000  -0.00611  -0.00612   2.08205
   A24        2.11137   0.00856   0.00000   0.02872   0.02872   2.14009
   A25        1.84018   0.01442   0.00000   0.07053   0.07053   1.91071
   A26        2.09872   0.00237   0.00000   0.00898   0.00898   2.10770
   A27        2.09366   0.00001   0.00000   0.00135   0.00135   2.09501
   A28        2.09079  -0.00238   0.00000  -0.01034  -0.01034   2.08046
   A29        2.10615  -0.00160   0.00000  -0.00642  -0.00643   2.09972
   A30        2.11640  -0.00282   0.00000  -0.01446  -0.01447   2.10193
   A31        2.06049   0.00443   0.00000   0.02101   0.02100   2.08149
    D1       -2.04254  -0.00017   0.00000  -0.00492  -0.00489  -2.04743
    D2        1.07912   0.00048   0.00000   0.00808   0.00840   1.08753
    D3        0.05630  -0.00058   0.00000  -0.00843  -0.00855   0.04775
    D4       -3.10522   0.00006   0.00000   0.00457   0.00474  -3.10048
    D5        2.14829  -0.00014   0.00000  -0.00466  -0.00501   2.14328
    D6       -1.01323   0.00051   0.00000   0.00834   0.00828  -1.00495
    D7        3.13508   0.00019   0.00000   0.00354   0.00376   3.13884
    D8       -0.03317   0.00007   0.00000   0.00161   0.00183  -0.03134
    D9       -0.02758   0.00121   0.00000   0.01841   0.01819  -0.00939
   D10        3.08736   0.00108   0.00000   0.01648   0.01626   3.10362
   D11        2.84089   0.00076   0.00000   0.01224   0.01225   2.85314
   D12       -0.32020   0.00089   0.00000   0.01414   0.01413  -0.30607
   D13       -0.27407   0.00090   0.00000   0.01422   0.01424  -0.25984
   D14        2.84802   0.00103   0.00000   0.01612   0.01611   2.86414
   D15       -3.13682  -0.00055   0.00000  -0.00781  -0.00780   3.13856
   D16        0.00060  -0.00035   0.00000  -0.00463  -0.00463  -0.00403
   D17        0.02274  -0.00052   0.00000  -0.00904  -0.00908   0.01367
   D18       -3.12302  -0.00031   0.00000  -0.00587  -0.00591  -3.12893
   D19       -3.13976   0.00002   0.00000   0.00167   0.00171  -3.13805
   D20       -0.01676   0.00059   0.00000   0.01039   0.01034  -0.00642
   D21       -0.01810   0.00025   0.00000   0.00394   0.00394  -0.01416
   D22        3.10490   0.00082   0.00000   0.01266   0.01257   3.11747
   D23       -0.00920   0.00051   0.00000   0.00838   0.00838  -0.00083
   D24        3.13263   0.00030   0.00000   0.00479   0.00477   3.13741
   D25        3.13650   0.00031   0.00000   0.00527   0.00526  -3.14143
   D26       -0.00485   0.00010   0.00000   0.00168   0.00166  -0.00320
   D27        3.13470  -0.00000   0.00000  -0.00023  -0.00027   3.13443
   D28       -0.00942  -0.00011   0.00000  -0.00212  -0.00211  -0.01153
   D29       -0.00713   0.00021   0.00000   0.00337   0.00333  -0.00381
   D30        3.13193   0.00010   0.00000   0.00148   0.00148   3.13342
   D31       -3.06185  -0.00054   0.00000  -0.00836  -0.00836  -3.07021
   D32        0.08230  -0.00041   0.00000  -0.00639  -0.00639   0.07591
   D33        0.01397  -0.00016   0.00000  -0.00295  -0.00297   0.01100
   D34       -3.12240  -0.00011   0.00000  -0.00192  -0.00194  -3.12434
   D35       -3.13019  -0.00030   0.00000  -0.00494  -0.00498  -3.13517
   D36        0.01663  -0.00024   0.00000  -0.00391  -0.00395   0.01268
   D37       -0.00002   0.00011   0.00000   0.00204   0.00204   0.00202
   D38       -3.12360  -0.00037   0.00000  -0.00605  -0.00612  -3.12973
   D39        3.13635   0.00006   0.00000   0.00105   0.00106   3.13741
   D40        0.01277  -0.00042   0.00000  -0.00704  -0.00711   0.00567
         Item               Value     Threshold  Converged?
 Maximum Force            0.056305     0.000450     NO 
 RMS     Force            0.014335     0.000300     NO 
 Maximum Displacement     0.172361     0.001800     NO 
 RMS     Displacement     0.050507     0.001200     NO 
 Predicted change in Energy=-2.221161D-02
 Lowest energy point so far.  Saving SCF results.
 GradGradGradGradGradGradGradGradGradGradGradGradGradGradGradGradGradGrad

 Leave Link  103 at Mon Feb 22 21:19:12 2021, MaxMem=   104857600 cpu:               1.6 elap:               0.1
 (Enter /sw/arch/RedHatEnterpriseServer7/EB_production/2019/software/Gaussian/g16.c01/l202.exe)
                          Input orientation:                          
 ---------------------------------------------------------------------
 Center     Atomic      Atomic             Coordinates (Angstroms)
 Number     Number       Type             X           Y           Z
 ---------------------------------------------------------------------
      1          6           0        1.999156    3.410080    2.405651
      2          6           0        2.205140    1.924233    2.256512
      3          8           0        2.156276    1.351060    1.147975
      4          7           0        2.457855    1.246033    3.419683
      5          6           0        2.685668   -0.125287    3.598491
      6          6           0        3.268864   -0.547242    4.814230
      7          6           0        3.522974   -1.897461    5.066696
      8          6           0        3.196454   -2.862102    4.103061
      9          8           0        3.470439   -4.178864    4.386716
     10          6           0        2.601620   -2.454516    2.895203
     11          6           0        2.346679   -1.101138    2.643476
     12          1           0        2.903829    3.896805    2.800940
     13          1           0        1.764515    3.843008    1.429616
     14          1           0        1.172001    3.630969    3.097398
     15          1           0        2.508821    1.814393    4.257079
     16          1           0        3.528660    0.181639    5.571417
     17          1           0        3.973777   -2.199134    6.002556
     18          1           0        3.254807   -4.730781    3.610559
     19          1           0        2.329862   -3.190891    2.149360
     20          1           0        1.879484   -0.816653    1.713714
 ---------------------------------------------------------------------
                    Distance matrix (angstroms):
                    1          2          3          4          5
     1  C    0.000000
     2  C    1.507453   0.000000
     3  O    2.417850   1.248907   0.000000
     4  N    2.433468   1.369959   2.294044   0.000000
     5  C    3.793809   2.496467   2.909448   1.401567   0.000000
     6  C    4.803521   3.712361   4.275843   2.412122   1.412864
     7  C    6.129696   4.923329   5.270401   3.705224   2.448940
     8  C    6.607192   5.225078   5.250261   4.229575   2.829425
     9  O    7.980060   6.586846   6.541905   5.602676   4.203409
    10  C    5.915751   4.442810   4.211122   3.740296   2.434540
    11  C    4.530830   3.053300   2.878551   2.474686   1.406859
    12  H    1.100722   2.162316   3.126011   2.758320   4.106204
    13  H    1.093219   2.135323   2.538228   3.344453   4.615183
    14  H    1.100677   2.165044   3.157060   2.728591   4.080655
    15  H    2.496751   2.026464   3.163146   1.013342   2.056058
    16  H    4.773289   3.972019   4.776801   2.628596   2.167320
    17  H    6.949830   5.844919   6.282845   4.564913   3.426309
    18  H    8.324787   6.872004   6.652810   6.032733   4.640542
    19  H    6.614217   5.117766   4.654269   4.616968   3.409472
    20  H    4.284667   2.813029   2.257356   2.738524   2.163400
                    6          7          8          9         10
     6  C    0.000000
     7  C    1.396926   0.000000
     8  C    2.422721   1.402048   0.000000
     9  O    3.662250   2.381161   1.374551   0.000000
    10  C    2.786678   2.423755   1.406725   2.439843   0.000000
    11  C    2.422685   2.808878   2.439979   3.711350   1.399998
    12  H    4.892458   6.252240   6.889410   8.249373   6.359205
    13  H    5.743952   7.019510   7.359093   8.718087   6.519778
    14  H    4.980140   6.322084   6.875299   8.242490   6.254424
    15  H    2.542716   3.932155   4.729287   6.071296   4.481841
    16  H    1.082633   2.139493   3.395701   4.518947   3.869217
    17  H    2.153547   1.081695   2.156812   2.604538   3.406418
    18  H    4.353276   3.196865   1.933371   0.976488   2.473816
    19  H    3.869384   3.406953   2.162413   2.698660   1.082766
    20  H    3.408248   3.887376   3.409875   4.580451   2.144759
                   11         12         13         14         15
    11  C    0.000000
    12  H    5.031366   0.000000
    13  H    5.124154   1.783665   0.000000
    14  H    4.896810   1.777015   1.782563   0.000000
    15  H    3.336215   2.571539   3.558627   2.536119   0.000000
    16  H    3.408143   4.676368   5.802788   4.855151   2.330974
    17  H    3.890561   6.968185   7.893041   7.090839   4.615320
    18  H    3.864486   8.672594   8.971473   8.632512   6.619198
    19  H    2.147440   7.140688   7.093192   6.984067   5.433909
    20  H    1.078730   4.944494   4.669729   4.711311   3.713108
                   16         17         18         19         20
    16  H    0.000000
    17  H    2.460099   0.000000
    18  H    5.296397   3.556376   0.000000
    19  H    4.951923   4.305016   2.315574   0.000000
    20  H    4.312567   4.969052   4.561790   2.455531   0.000000
 Stoichiometry    C8H9NO2
 Framework group  C1[X(C8H9NO2)]
 Deg. of freedom    54
 Full point group                 C1      NOp   1
 RotChk:  IX=0 Diff= 3.34D-03
 Largest Abelian subgroup         C1      NOp   1
 Largest concise Abelian subgroup C1      NOp   1
                         Standard orientation:                         
 ---------------------------------------------------------------------
 Center     Atomic      Atomic             Coordinates (Angstroms)
 Number     Number       Type             X           Y           Z
 ---------------------------------------------------------------------
      1          6           0       -3.975317    0.421763    0.056869
      2          6           0       -2.610928   -0.209105   -0.056542
      3          8           0       -2.454905   -1.423150   -0.304569
      4          7           0       -1.552764    0.642253    0.123085
      5          6           0       -0.182224    0.352039    0.080806
      6          6           0        0.719640    1.430692   -0.058237
      7          6           0        2.099936    1.220803   -0.104399
      8          6           0        2.612378   -0.080890   -0.010929
      9          8           0        3.975806   -0.245416   -0.069121
     10          6           0        1.724162   -1.160849    0.142812
     11          6           0        0.341028   -0.949344    0.189718
     12          1           0       -4.121933    1.188583   -0.719069
     13          1           0       -4.741662   -0.348956   -0.060759
     14          1           0       -4.110621    0.907070    1.035469
     15          1           0       -1.793117    1.613190    0.285491
     16          1           0        0.344507    2.443556   -0.132236
     17          1           0        2.773137    2.060201   -0.215191
     18          1           0        4.189528   -1.198165   -0.058047
     19          1           0        2.107662   -2.169463    0.232297
     20          1           0       -0.317416   -1.793910    0.319399
 ---------------------------------------------------------------------
[...]
   15   H     15    1.3000  1.000     -1.768082      1.632302     -0.000150
   16   H     16    1.3000  1.000      0.349897      2.449529      0.000066
   17   H     17    1.3000  1.000      2.799383      2.066470      0.000105
   18   H     18    1.3000  1.000      4.220394     -1.177572     -0.000062
   19   H     19    1.3000  1.000      2.128317     -2.194890     -0.000087
   20   H     20    1.3000  1.000     -0.324447     -1.816045     -0.000124
 ------------------------------------------------------------------------------
 One-electron integrals computed using PRISM.
 PrsmSu:  requested number of processors reduced to:  28 ShMem   1 Linda.
 NBasis=   263 RedAO= T EigKep=  1.00D-05  NBF=   263
 NBsUse=   263 1.00D-06 EigRej= -1.00D+00 NBFU=   263
 Initial guess from the checkpoint file:  "RZVAJINKPMORJF-UHFFFAOYSA-N.chk"
 B after Tr=    -0.000000    0.000000    0.000000
         Rot=    1.000000   -0.000000   -0.000000   -0.000000 Ang=   0.00 deg.
 Requested convergence on RMS density matrix=1.00D-08 within 128 cycles.
 Requested convergence on MAX density matrix=1.00D-06.
 Requested convergence on             energy=1.00D-06.
 No special actions if energy rises.
 Inv3:  Mode=1 IEnd=     5787963.
 Iteration    1 A*A^-1 deviation from unit magnitude is 3.55D-15 for    422.
 Iteration    1 A*A^-1 deviation from orthogonality  is 2.03D-15 for    400    253.
 Iteration    1 A^-1*A deviation from unit magnitude is 3.77D-15 for    422.
 Iteration    1 A^-1*A deviation from orthogonality  is 1.78D-15 for   1256    128.
 Error on nuclear    polarization charges =  0.02756
 Error on electronic polarization charges = -0.05827
 SCF Done:  E(RB-P86) =  -515.691855716     A.U. after   11 cycles
            NFock= 11  Conv=0.78D-08     -V/T= 2.0046
 --------------------------------------------------------------------
 Variational C-PCM results
 =========================
 <psi(f)|   H    |psi(f)>                     (a.u.) =    -515.662365
 <psi(f)|H+V(f)/2|psi(f)>                     (a.u.) =    -515.691856
 Total free energy in solution:
 - with all non electrostatic terms           (a.u.) =    -515.679651
 --------------------------------------------------------------------
 (Polarized solute)-Solvent               (kcal/mol) =     -18.51
 --------------------------------------------------------------------
 Cavitation energy                        (kcal/mol) =      24.30
 Dispersion energy                        (kcal/mol) =     -18.10
 Repulsion energy                         (kcal/mol) =       1.46
 Total non electrostatic                  (kcal/mol) =       7.66
 --------------------------------------------------------------------
 Partition over spheres:
 Sphere  on Atom  Surface  Charge   GEl     GCav    GDR
    1      C1      18.70  -0.013   -0.24    2.20   -1.37
    2      C2       9.50  -0.001   -0.13    1.12   -0.65
    3      O3      17.46   0.260   -5.85    2.17   -1.49
    4      N4       6.22  -0.001   -0.20    0.75   -0.45
    5      C5       6.92   0.019   -0.11    0.81   -0.48
    6      C6      13.04   0.021   -0.33    1.53   -1.02
    7      C7      13.65   0.033   -0.24    1.60   -1.01
    8      C8       7.94   0.017   -0.18    0.93   -0.53
    9      O9      16.19   0.134   -1.66    2.01   -1.50
   10      C10     13.32   0.023   -0.45    1.56   -1.02
   11      C11     12.46   0.042   -0.42    1.46   -0.95
   12      H12      6.53  -0.039   -0.24    0.92   -0.76
   13      H13      6.53  -0.039   -0.24    0.92   -0.76
   14      H14      6.23  -0.042   -0.77    0.88   -0.64
   15      H15      6.62  -0.110   -2.88    0.93   -0.54
   16      H16      6.39  -0.050   -0.87    0.90   -0.73
   17      H17      6.43  -0.044   -0.26    0.91   -0.77
   18      H18      8.14  -0.142   -2.96    1.15   -0.82
   19      H19      6.45  -0.048   -0.59    0.91   -0.74
   20      H20      4.38  -0.021    0.11    0.62   -0.39
 --------------------------------------------------------------------
 - cavitation energy not included in the total energy.
 - dispersion energy not included in the total energy.
 - repulsion  energy not included in the total energy.
 After PCM corrections, the energy is  -515.691855716     a.u.
 --------------------------------------------------------------------
 Writing COSMO formatted file "RZVAJINKPMORJF-UHFFFAOYSA-N.cosmo"
 Recomputed dielectric energy= -0.029566 old= -0.029490 diff=-7.56D-05

 **********************************************************************

            Population analysis using the SCF Density.

 **********************************************************************

 Orbital symmetries:
       Occupied  (A) (A) (A) (A) (A) (A) (A) (A) (A) (A) (A) (A)
                 (A) (A) (A) (A) (A) (A) (A) (A) (A) (A) (A) (A)
                 (A) (A) (A) (A) (A) (A) (A) (A) (A) (A) (A) (A)
                 (A) (A) (A) (A)
       Virtual   (A) (A) (A) (A) (A) (A) (A) (A) (A) (A) (A) (A)
                 (A) (A) (A) (A) (A) (A) (A) (A) (A) (A) (A) (A)
                 (A) (A) (A) (A) (A) (A) (A) (A) (A) (A) (A) (A)
                 (A) (A) (A) (A) (A) (A) (A) (A) (A) (A) (A) (A)
                 (A) (A) (A) (A) (A) (A) (A) (A) (A) (A) (A) (A)
                 (A) (A) (A) (A) (A) (A) (A) (A) (A) (A) (A) (A)
                 (A) (A) (A) (A) (A) (A) (A) (A) (A) (A) (A) (A)
                 (A) (A) (A) (A) (A) (A) (A) (A) (A) (A) (A) (A)
                 (A) (A) (A) (A) (A) (A) (A) (A) (A) (A) (A) (A)
                 (A) (A) (A) (A) (A) (A) (A) (A) (A) (A) (A) (A)
                 (A) (A) (A) (A) (A) (A) (A) (A) (A) (A) (A) (A)
                 (A) (A) (A) (A) (A) (A) (A) (A) (A) (A) (A) (A)
                 (A) (A) (A) (A) (A) (A) (A) (A) (A) (A) (A) (A)
                 (A) (A) (A) (A) (A) (A) (A) (A) (A) (A) (A) (A)
                 (A) (A) (A) (A) (A) (A) (A) (A) (A) (A) (A) (A)
                 (A) (A) (A) (A) (A) (A) (A) (A) (A) (A) (A) (A)
                 (A) (A) (A) (A) (A) (A) (A) (A) (A) (A) (A) (A)
                 (A) (A) (A) (A) (A) (A) (A) (A) (A) (A) (A) (A)
                 (A) (A) (A) (A) (A) (A) (A)
 The electronic state is 1-A.
 Alpha  occ. eigenvalues --  -18.80310 -18.74720 -14.04695 -10.00538  -9.96407
 Alpha  occ. eigenvalues --   -9.94944  -9.91100  -9.90693  -9.90645  -9.90587
 Alpha  occ. eigenvalues --   -9.89959  -0.97634  -0.95958  -0.86720  -0.78006
 Alpha  occ. eigenvalues --   -0.69558  -0.68880  -0.65405  -0.57964  -0.57643
 Alpha  occ. eigenvalues --   -0.52092  -0.49863  -0.49094  -0.44003  -0.41953
 Alpha  occ. eigenvalues --   -0.41068  -0.39874  -0.38457  -0.37775  -0.37428
 Alpha  occ. eigenvalues --   -0.36753  -0.35099  -0.34662  -0.33976  -0.31112
 Alpha  occ. eigenvalues --   -0.30742  -0.26354  -0.24085  -0.22591  -0.19164
 Alpha virt. eigenvalues --   -0.05338  -0.05175  -0.00036   0.02511   0.03346
 Alpha virt. eigenvalues --    0.04734   0.06389   0.08298   0.09071   0.10020
 Alpha virt. eigenvalues --    0.10617   0.11185   0.11284   0.11548   0.13226
 Alpha virt. eigenvalues --    0.15156   0.15333   0.17377   0.17558   0.18784
 Alpha virt. eigenvalues --    0.19886   0.20071   0.20784   0.21509   0.22752
 Alpha virt. eigenvalues --    0.23032   0.23042   0.24268   0.26323   0.27557
 Alpha virt. eigenvalues --    0.27787   0.28315   0.30278   0.31014   0.31638
 Alpha virt. eigenvalues --    0.32623   0.33529   0.33788   0.34445   0.35309
 Alpha virt. eigenvalues --    0.36883   0.37912   0.38181   0.38845   0.41185
 Alpha virt. eigenvalues --    0.41357   0.42153   0.42486   0.43660   0.44817
 Alpha virt. eigenvalues --    0.45517   0.45610   0.46767   0.48616   0.49803
 Alpha virt. eigenvalues --    0.49991   0.50348   0.52353   0.53404   0.54528
 Alpha virt. eigenvalues --    0.55029   0.56280   0.58535   0.59388   0.61212
 Alpha virt. eigenvalues --    0.63404   0.64943   0.65535   0.68542   0.69431
 Alpha virt. eigenvalues --    0.71910   0.75644   0.79489   0.82461   0.84827
 Alpha virt. eigenvalues --    0.86533   0.89604   1.07779   1.07938   1.14329
 Alpha virt. eigenvalues --    1.16865   1.17785   1.18351   1.20959   1.22470
 Alpha virt. eigenvalues --    1.22617   1.23138   1.25550   1.25751   1.27305
 Alpha virt. eigenvalues --    1.28424   1.28743   1.30053   1.30225   1.33124
 Alpha virt. eigenvalues --    1.33571   1.36204   1.36287   1.37259   1.37870
 Alpha virt. eigenvalues --    1.38516   1.39693   1.39882   1.41986   1.43833
 Alpha virt. eigenvalues --    1.44606   1.44798   1.45912   1.46335   1.46950
 Alpha virt. eigenvalues --    1.47132   1.48050   1.51075   1.51668   1.52880
 Alpha virt. eigenvalues --    1.53238   1.57067   1.59505   1.66942   1.68731
 Alpha virt. eigenvalues --    1.69199   1.70912   1.71950   1.72299   1.72619
 Alpha virt. eigenvalues --    1.74716   1.78073   1.80075   1.81915   1.82250
 Alpha virt. eigenvalues --    1.82648   1.84822   1.86542   1.90507   1.92628
 Alpha virt. eigenvalues --    1.93199   1.93897   1.97779   2.02883   2.05161
 Alpha virt. eigenvalues --    2.06833   2.09599   2.09601   2.11728   2.13864
 Alpha virt. eigenvalues --    2.15878   2.18794   2.20325   2.21003   2.21701
 Alpha virt. eigenvalues --    2.22849   2.23441   2.25720   2.27263   2.27861
 Alpha virt. eigenvalues --    2.30332   2.32337   2.34202   2.36745   2.39388
 Alpha virt. eigenvalues --    2.40208   2.44016   2.44145   2.46470   2.47819
 Alpha virt. eigenvalues --    2.47941   2.50904   2.51589   2.55122   2.57685
 Alpha virt. eigenvalues --    2.58374   2.59110   2.59686   2.60104   2.60324
 Alpha virt. eigenvalues --    2.67182   2.70019   2.70146   2.72021   2.75804
 Alpha virt. eigenvalues --    2.78449   2.83195   2.84402   2.85274   2.88768
 Alpha virt. eigenvalues --    2.88934   2.93669   2.95030   2.96367   2.98660
 Alpha virt. eigenvalues --    3.01724   3.03227   3.07297   3.07636   3.10429
 Alpha virt. eigenvalues --    3.12617   3.14205   3.18160   3.19849   3.22345
 Alpha virt. eigenvalues --    3.23556   3.25144   3.27904   3.34752   3.38341
 Alpha virt. eigenvalues --    3.43248   3.45399   3.66919   3.80266   3.95841
 Alpha virt. eigenvalues --    4.13041   4.19593  21.11890  21.57289  21.67412
 Alpha virt. eigenvalues --   21.70801  21.80297  21.81797  21.83309  21.94147
 Alpha virt. eigenvalues --   31.49822  43.14432  43.17405
          Condensed to atoms (all electrons):
               1          2          3          4          5          6
     1  C    5.198612   0.256363  -0.072703  -0.078385   0.012060  -0.000287
     2  C    0.256363   4.848345   0.558144   0.266124  -0.097977   0.032292
     3  O   -0.072703   0.558144   8.058030  -0.117193  -0.030061   0.005146
     4  N   -0.078385   0.266124  -0.117193   6.569820   0.304032  -0.052349
     5  C    0.012060  -0.097977  -0.030061   0.304032   5.250152   0.278750
     6  C   -0.000287   0.032292   0.005146  -0.052349   0.278750   5.395800
     7  C    0.000086  -0.003200  -0.000277   0.005712   0.058356   0.341653
     8  C    0.000052   0.000923   0.000208   0.002658  -0.153728   0.015462
     9  O    0.000000   0.000003   0.000000  -0.000003  -0.002242   0.008375
    10  C   -0.000268   0.003958   0.002640   0.010334   0.085397  -0.062251
    11  C    0.001981  -0.028995  -0.005828  -0.043381   0.302461  -0.120715
    12  H    0.391650  -0.025146   0.001562  -0.002254  -0.000944  -0.000011
    13  H    0.391610  -0.025101   0.001547  -0.002284  -0.000944  -0.000010
    14  H    0.389154  -0.063103   0.005212   0.024773   0.003995   0.000089
    15  H   -0.002671  -0.008798   0.004802   0.347644  -0.044265  -0.003580
    16  H    0.000008   0.001070   0.000019  -0.000658  -0.092121   0.446300
    17  H   -0.000002  -0.000015  -0.000002  -0.000229   0.020165  -0.050114
    18  H    0.000000   0.000001   0.000000  -0.000000  -0.000328  -0.001251
    19  H   -0.000004  -0.000106  -0.000106  -0.000256   0.013494   0.000597
    20  H    0.001917  -0.008862   0.029312  -0.005161  -0.058380   0.009073
               7          8          9         10         11         12
     1  C    0.000086   0.000052   0.000000  -0.000268   0.001981   0.391650
     2  C   -0.003200   0.000923   0.000003   0.003958  -0.028995  -0.025146
     3  O   -0.000277   0.000208   0.000000   0.002640  -0.005828   0.001562
     4  N    0.005712   0.002658  -0.000003   0.010334  -0.043381  -0.002254
     5  C    0.058356  -0.153728  -0.002242   0.085397   0.302461  -0.000944
     6  C    0.341653   0.015462   0.008375  -0.062251  -0.120715  -0.000011
     7  C    5.259610   0.363616  -0.076544  -0.073112  -0.057131  -0.000005
     8  C    0.363616   5.118866   0.371463   0.163700   0.134746   0.000000
     9  O   -0.076544   0.371463   7.810133  -0.117099   0.023394   0.000000
    10  C   -0.073112   0.163700  -0.117099   5.857550  -0.053148  -0.000003
    11  C   -0.057131   0.134746   0.023394  -0.053148   5.669362   0.000253
    12  H   -0.000005   0.000000   0.000000  -0.000003   0.000253   0.503902
    13  H   -0.000005   0.000000   0.000000  -0.000003   0.000254  -0.026175
    14  H    0.000064  -0.000013  -0.000000   0.000016  -0.001012  -0.019491
    15  H    0.003295  -0.000274   0.000000  -0.000156   0.006009   0.000621
    16  H   -0.047508   0.020785  -0.000107  -0.003559   0.013083   0.000000
    17  H    0.441638  -0.088830   0.004060   0.019891  -0.006695   0.000000
    18  H    0.010924  -0.023779   0.307673  -0.024107   0.005375   0.000000
    19  H    0.007456  -0.063118  -0.005957   0.420329  -0.031070  -0.000000
    20  H   -0.000652   0.009060  -0.000065  -0.019983   0.399743   0.000002
              13         14         15         16         17         18
     1  C    0.391610   0.389154  -0.002671   0.000008  -0.000002   0.000000
     2  C   -0.025101  -0.063103  -0.008798   0.001070  -0.000015   0.000001
     3  O    0.001547   0.005212   0.004802   0.000019  -0.000002   0.000000
     4  N   -0.002284   0.024773   0.347644  -0.000658  -0.000229  -0.000000
     5  C   -0.000944   0.003995  -0.044265  -0.092121   0.020165  -0.000328
     6  C   -0.000010   0.000089  -0.003580   0.446300  -0.050114  -0.001251
     7  C   -0.000005   0.000064   0.003295  -0.047508   0.441638   0.010924
     8  C    0.000000  -0.000013  -0.000274   0.020785  -0.088830  -0.023779
     9  O    0.000000  -0.000000   0.000000  -0.000107   0.004060   0.307673
    10  C   -0.000003   0.000016  -0.000156  -0.003559   0.019891  -0.024107
    11  C    0.000254  -0.001012   0.006009   0.013083  -0.006695   0.005375
    12  H   -0.026175  -0.019491   0.000621   0.000000   0.000000   0.000000
    13  H    0.503951  -0.019467   0.000620   0.000001   0.000000   0.000000
    14  H   -0.019467   0.521488  -0.002923  -0.000021   0.000001  -0.000000
    15  H    0.000620  -0.002923   0.387484   0.001874  -0.000044  -0.000000
    16  H    0.000001  -0.000021   0.001874   0.510370  -0.009550   0.000027
    17  H    0.000000   0.000001  -0.000044  -0.009550   0.514470  -0.000680
    18  H    0.000000  -0.000000  -0.000000   0.000027  -0.000680   0.395753
    19  H   -0.000000   0.000000   0.000016   0.000003  -0.000157   0.000655
    20  H    0.000002  -0.000149  -0.000264  -0.000141   0.000005  -0.000041
              19         20
     1  C   -0.000004   0.001917
     2  C   -0.000106  -0.008862
     3  O   -0.000106   0.029312
     4  N   -0.000256  -0.005161
     5  C    0.013494  -0.058380
     6  C    0.000597   0.009073
     7  C    0.007456  -0.000652
     8  C   -0.063118   0.009060
     9  O   -0.005957  -0.000065
    10  C    0.420329  -0.019983
    11  C   -0.031070   0.399743
    12  H   -0.000000   0.000002
    13  H   -0.000000   0.000002
    14  H    0.000000  -0.000149
    15  H    0.000016  -0.000264
    16  H    0.000003  -0.000141
    17  H   -0.000157   0.000005
    18  H    0.000655  -0.000041
    19  H    0.500197  -0.005947
    20  H   -0.005947   0.481538
 Mulliken charges:
               1
     1  C   -0.489173
     2  C    0.294081
     3  O   -0.440451
     4  N   -0.228944
     5  C    0.152127
     6  C   -0.242969
     7  C   -0.233973
     8  C    0.128203
     9  O   -0.323082
    10  C   -0.210127
    11  C   -0.208687
    12  H    0.176038
    13  H    0.176005
    14  H    0.161387
    15  H    0.310609
    16  H    0.160126
    17  H    0.156087
    18  H    0.329778
    19  H    0.163973
    20  H    0.168992
 Sum of Mulliken charges =  -0.00000
 Mulliken charges with hydrogens summed into heavy atoms:
               1
     1  C    0.024257
     2  C    0.294081
     3  O   -0.440451
     4  N    0.081665
     5  C    0.152127
     6  C   -0.082843
     7  C   -0.077886
     8  C    0.128203
     9  O    0.006697
    10  C   -0.046154
    11  C   -0.039694
 Electronic spatial extent (au):  <R**2>=           2269.2343
 Charge=              0.0000 electrons
 Dipole moment (field-independent basis, Debye):
    X=              0.0684    Y=              3.5285    Z=             -0.0017  Tot=              3.5292
 Quadrupole moment (field-independent basis, Debye-Ang):
   XX=            -58.5795   YY=            -58.1324   ZZ=            -68.3233
   XY=            -20.7956   XZ=             -0.0010   YZ=              0.0013
 Traceless Quadrupole moment (field-independent basis, Debye-Ang):
   XX=              3.0989   YY=              3.5460   ZZ=             -6.6449
   XY=            -20.7956   XZ=             -0.0010   YZ=              0.0013
 Octapole moment (field-independent basis, Debye-Ang**2):
  XXX=            -19.1734  YYY=             14.1159  ZZZ=              0.0007  XYY=             28.9814
  XXY=             -2.7609  XXZ=             -0.0114  XZZ=             -7.0069  YZZ=             -2.2285
  YYZ=             -0.0056  XYZ=             -0.0009
 Hexadecapole moment (field-independent basis, Debye-Ang**3):
 XXXX=          -2289.3417 YYYY=           -402.5710 ZZZZ=            -80.0672 XXXY=           -241.0441
 XXXZ=             -0.0015 YYYX=            -62.4490 YYYZ=             -0.0015 ZZZX=             -0.0163
 ZZZY=              0.0014 XXYY=           -433.1171 XXZZ=           -421.6378 YYZZ=            -96.5012
 XXYZ=              0.0171 YYXZ=              0.0104 ZZXY=             -0.8576
 N-N= 5.678896233390D+02 E-N=-2.339689340591D+03  KE= 5.133424900948D+02
 Unable to Open any file for archive entry.
 1\1\GINC-TCN1681\SP\RBP86\TZVP\C8H9N1O2\ELENAA\22-Feb-2021\0\\# BP86/T
 ZVP SCRF=COSMORS geom=CHECKPOINT guess=CHECKPOINT\\COSMO-file for #RZV
 AJINKPMORJF-UHFFFAOYSA-N\\0,1\C,0,2.0143890874,3.4344746765,2.42618316
 67\C,0,2.1401111648,1.9296590594,2.2531314449\O,0,1.9206568138,1.38465
 26889,1.1614285172\N,0,2.509414048,1.2458108899,3.3871680056\C,0,2.715
 2479122,-0.1421605043,3.5770446851\C,0,3.0952170783,-0.5711778601,4.86
 51462757\C,0,3.3175058085,-1.9187916396,5.1365237624\C,0,3.1639131658,
 -2.8736198421,4.1197930857\O,0,3.3973267648,-4.1911204485,4.447650237\
 C,0,2.7864264476,-2.456465466,2.8361371012\C,0,2.5625865247,-1.1032763
 17,2.5611894278\H,0,2.6971166509,3.9256070011,1.7179700213\H,0,0.99009
 09393,3.732229595,2.1595870778\H,0,2.2360380385,3.7933074056,3.4401254
 309\H,0,2.6587735541,1.8151887675,4.2176089592\H,0,3.2189140737,0.1607
 077124,5.6676527191\H,0,3.6113767693,-2.2419655516,6.1365355254\H,0,3.
 2578197873,-4.7489130104,3.659986589\H,0,2.663927249,-3.1920718224,2.0
 366384945\H,0,2.2700281219,-0.7879253344,1.5628294735\\Version=ES64L-G
 16RevC.01\State=1-A\HF=-515.6918557\RMSD=7.834e-09\Dipole=0.2728707,0.
 4866032,1.2714904\Quadrupole=-5.5299056,12.7794695,-7.2495639,0.925619
 3,-1.883677,11.3905591\PG=C01 [X(C8H9N1O2)]\\@
 The archive entry for this job was punched.


 IT IS A SIMPLE TASK TO MAKE THINGS COMPLEX,
 BUT A COMPLEX TASK TO MAKE THEM SIMPLE.
 Job cpu time:       0 days  0 hours  6 minutes 12.9 seconds.
 Elapsed time:       0 days  0 hours  0 minutes 12.1 seconds.
 File lengths (MBytes):  RWF=     58 Int=      0 D2E=      0 Chk=     10 Scr=      1
 Normal termination of Gaussian 16 at Mon Feb 22 21:29:00 2021.
