 Entering Gaussian System, Link 0=g16
 Input=SPALIFXDWQTXKS-UHFFFAOYSA-M.gjf
 Output=SPALIFXDWQTXKS-UHFFFAOYSA-M.log
 Initial command:
 /sw/arch/RedHatEnterpriseServer7/EB_production/2020/software/Gaussian/g16.c01/l1.exe "/scratch-local/elenaa.10684705/Gau-28707.inp" -scrdir="/scratch-local/elenaa.10684705/"
 Entering Link 1 = /sw/arch/RedHatEnterpriseServer7/EB_production/2020/software/Gaussian/g16.c01/l1.exe PID=     28708.
  
 Copyright (c) 1988-2019, Gaussian, Inc.  All Rights Reserved.
  
 This is part of the Gaussian(R) 16 program.  It is based on
 the Gaussian(R) 09 system (copyright 2009, Gaussian, Inc.),
 the Gaussian(R) 03 system (copyright 2003, Gaussian, Inc.),
 the Gaussian(R) 98 system (copyright 1998, Gaussian, Inc.),
 the Gaussian(R) 94 system (copyright 1995, Gaussian, Inc.),
 the Gaussian 92(TM) system (copyright 1992, Gaussian, Inc.),
 the Gaussian 90(TM) system (copyright 1990, Gaussian, Inc.),
 the Gaussian 88(TM) system (copyright 1988, Gaussian, Inc.),
 the Gaussian 86(TM) system (copyright 1986, Carnegie Mellon
 University), and the Gaussian 82(TM) system (copyright 1983,
 Carnegie Mellon University). Gaussian is a federally registered
 trademark of Gaussian, Inc.
  
 This software contains proprietary and confidential information,
 including trade secrets, belonging to Gaussian, Inc.
  
 This software is provided under written license and may be
 used, copied, transmitted, or stored only in accord with that
 written license.
  
 The following legend is applicable only to US Government
 contracts under FAR:
  
                    RESTRICTED RIGHTS LEGEND
  
 Use, reproduction and disclosure by the US Government is
 subject to restrictions as set forth in subparagraphs (a)
 and (c) of the Commercial Computer Software - Restricted
 Rights clause in FAR 52.227-19.
  
 Gaussian, Inc.
 340 Quinnipiac St., Bldg. 40, Wallingford CT 06492
  
  
 ---------------------------------------------------------------
 Warning -- This program may not be used in any manner that
 competes with the business of Gaussian, Inc. or will provide
 assistance to any competitor of Gaussian, Inc.  The licensee
 of this program is prohibited from giving any competitor of
 Gaussian, Inc. access to this program.  By using this program,
 the user acknowledges that Gaussian, Inc. is engaged in the
 business of creating and licensing software in the field of
 computational chemistry and represents and warrants to the
 licensee that it is not a competitor of Gaussian, Inc. and that
 it will not use this program in any manner prohibited above.
 ---------------------------------------------------------------
  

 Cite this work as:
 Gaussian 16, Revision C.01,
 M. J. Frisch, G. W. Trucks, H. B. Schlegel, G. E. Scuseria, 
 M. A. Robb, J. R. Cheeseman, G. Scalmani, V. Barone, 
 G. A. Petersson, H. Nakatsuji, X. Li, M. Caricato, A. V. Marenich, 
 J. Bloino, B. G. Janesko, R. Gomperts, B. Mennucci, H. P. Hratchian, 
 J. V. Ortiz, A. F. Izmaylov, J. L. Sonnenberg, D. Williams-Young, 
 F. Ding, F. Lipparini, F. Egidi, J. Goings, B. Peng, A. Petrone, 
 T. Henderson, D. Ranasinghe, V. G. Zakrzewski, J. Gao, N. Rega, 
 G. Zheng, W. Liang, M. Hada, M. Ehara, K. Toyota, R. Fukuda, 
 J. Hasegawa, M. Ishida, T. Nakajima, Y. Honda, O. Kitao, H. Nakai, 
 T. Vreven, K. Throssell, J. A. Montgomery, Jr., J. E. Peralta, 
 F. Ogliaro, M. J. Bearpark, J. J. Heyd, E. N. Brothers, K. N. Kudin, 
 V. N. Staroverov, T. A. Keith, R. Kobayashi, J. Normand, 
 K. Raghavachari, A. P. Rendell, J. C. Burant, S. S. Iyengar, 
 J. Tomasi, M. Cossi, J. M. Millam, M. Klene, C. Adamo, R. Cammi, 
 J. W. Ochterski, R. L. Martin, K. Morokuma, O. Farkas, 
 J. B. Foresman, and D. J. Fox, Gaussian, Inc., Wallingford CT, 2019.
 
 ******************************************
 Gaussian 16:  ES64L-G16RevC.01  3-Jul-2019
                21-Aug-2021 
 ******************************************
 %chk=SPALIFXDWQTXKS-UHFFFAOYSA-M.chk
 %NProcShared=24
 Will use up to   24 processors via shared memory.
 -------------------------------------------------------------
 #P BP86/TZVP EmpiricalDispersion=GD3 SCRF=(Solvent=Water) Opt
 -------------------------------------------------------------
 1/18=20,19=15,26=3,38=1/1,3;
 2/9=110,12=2,17=6,18=5,40=1/2;
 3/5=19,7=101,11=2,25=1,30=1,70=2201,71=1,72=1,74=404,124=31/1,2,3;
 4//1;
 5/5=2,38=5,53=1/2;
 6/7=2,8=2,9=2,10=2,28=1/1;
 7//1,2,3,16;
 1/18=20,19=15,26=3/3(2);
 2/9=110/2;
 99//99;
 2/9=110/2;
 3/5=19,7=101,11=2,25=1,30=1,70=2205,71=1,72=1,74=404,124=31/1,2,3;
 4/5=5,16=3,69=1/1;
 5/5=2,38=5,53=1/2;
 7//1,2,3,16;
 1/18=20,19=15,26=3/3(-5);
 2/9=110/2;
 6/7=2,8=2,9=2,10=2,19=2,28=1/1;
 99/9=1/99;
 Leave Link    1 at Sat Aug 21 09:33:12 2021, MaxMem=           0 cpu:               1.9 elap:               0.1
 (Enter /sw/arch/RedHatEnterpriseServer7/EB_production/2020/software/Gaussian/g16.c01/l101.exe)
 -------------------------------------
 Particle #SPALIFXDWQTXKS-UHFFFAOYSA-M
 -------------------------------------
 Symbolic Z-matrix:
 Charge =  0 Multiplicity = 1
 C                     5.72938  -0.91703   0.47715 
 C                     5.34216  -0.11707   1.72125 
 C                     4.5846    1.18285   1.37689 
 C                     3.06157   1.08135   1.57695 
 C                     2.39144   0.09769   0.58335 
 N                     0.88634   0.176     0.48307 
 C                     0.30227   0.13896   1.87286 
 C                    -1.23993   0.13671   1.98235 
 C                    -1.67769  -0.09513   3.43832 
 C                    -3.20563  -0.1366    3.59841 
 C                    -3.85138   1.2423    3.46483 
 C                     0.54594   1.50125  -0.17294 
 C                    -0.76399   1.57832  -1.01085 
 C                    -1.13365   3.0296   -1.37276 
 C                    -1.86678   3.7739   -0.24131 
 C                    -3.34791   3.40322  -0.16279 
 C                     0.3926   -0.99513  -0.32772 
 C                     1.13535  -1.23029  -1.66765 
 C                     0.34863  -2.18754  -2.57616 
 C                     1.12119  -2.56255  -3.8501 
 C                     1.2468   -1.39607  -4.82993 
 Br                    1.91105  -3.05715   2.16086 
 H                     4.83324  -1.22446  -0.09794 
 H                     6.39097  -0.31147  -0.17814 
 H                     6.2794   -1.83192   0.78261 
 H                     4.74612  -0.75952   2.40538 
 H                     6.2797    0.14628   2.25798 
 H                     4.95252   1.98464   2.05422 
 H                     4.81167   1.52126   0.34184 
 H                     2.86939   0.76101   2.62361 
 H                     2.64325   2.10042   1.44763 
 H                     2.70952  -0.91803   0.85936 
 H                     2.8557    0.28074  -0.4111 
 H                     0.63334   1.02389   2.45881 
 H                     0.68593  -0.73283   2.4261 
 H                    -1.69083  -0.66188   1.36167 
 H                    -1.62231   1.12616   1.66646 
 H                    -1.27209  -1.07196   3.7823 
 H                    -1.25231   0.69507   4.0956 
 H                    -3.44134  -0.53236   4.6101 
 H                    -3.65178  -0.83173   2.85436 
 H                    -4.93319   1.1673    3.70335 
 H                    -3.38364   1.96154   4.1702 
 H                    -3.75359   1.62451   2.42901 
 H                     0.51799   2.30841   0.59006 
 H                     1.35228   1.81822  -0.87288 
 H                    -0.61002   1.03554  -1.96682 
 H                    -1.62304   1.09681  -0.51449 
 H                    -1.77218   3.02756  -2.28354 
 H                    -0.21057   3.59035  -1.63781 
 H                    -1.38622   3.58013   0.74036 
 H                    -1.79621   4.86622  -0.43447 
 H                    -3.47843   2.32294   0.04968 
 H                    -3.83005   3.97996   0.65442 
 H                    -3.85865   3.65086  -1.11749 
 H                    -0.68724  -0.91091  -0.5495 
 H                     0.4567   -1.92894   0.2544 
 H                     1.28898  -0.26811  -2.19501 
 H                     2.13063  -1.68101  -1.46246 
 H                    -0.62787  -1.73164  -2.85143 
 H                     0.13772  -3.12321  -2.01317 
 H                     2.13348  -2.93965  -3.58757 
 H                     0.57747  -3.38757  -4.35935 
 H                     1.69896  -1.75778  -5.77736 
 H                     1.90348  -0.60324  -4.41597 
 H                     0.24698  -0.96851  -5.05657 
 
 Add virtual bond connecting atoms H32        and Br22       Dist= 4.97D+00.
 Add virtual bond connecting atoms H35        and Br22       Dist= 4.99D+00.
 Add virtual bond connecting atoms H57        and Br22       Dist= 5.01D+00.
 ITRead=  0  0  0  0  0  0  0  0  0  0  0  0  0  0  0  0  0  0  0  0
 ITRead=  0  0  0  0  0  0  0  0  0  0  0  0  0  0  0  0  0  0  0  0
 ITRead=  0  0  0  0  0  0  0  0  0  0  0  0  0  0  0  0  0  0  0  0
 ITRead=  0  0  0  0  0  0
 MicOpt= -1 -1 -1 -1 -1 -1 -1 -1 -1 -1 -1 -1 -1 -1 -1 -1 -1 -1 -1 -1
 MicOpt= -1 -1 -1 -1 -1 -1 -1 -1 -1 -1 -1 -1 -1 -1 -1 -1 -1 -1 -1 -1
 MicOpt= -1 -1 -1 -1 -1 -1 -1 -1 -1 -1 -1 -1 -1 -1 -1 -1 -1 -1 -1 -1
 MicOpt= -1 -1 -1 -1 -1 -1
 NAtoms=     66 NQM=       66 NQMF=       0 NMMI=      0 NMMIF=      0
                NMic=       0 NMicF=      0.
                    Isotopes and Nuclear Properties:
 (Nuclear quadrupole moments (NQMom) in fm**2, nuclear magnetic moments (NMagM)
  in nuclear magnetons)

  Atom         1           2           3           4           5           6           7           8           9          10
 IAtWgt=          12          12          12          12          12          14          12          12          12          12
 AtmWgt=  12.0000000  12.0000000  12.0000000  12.0000000  12.0000000  14.0030740  12.0000000  12.0000000  12.0000000  12.0000000
 NucSpn=           0           0           0           0           0           2           0           0           0           0
 AtZEff=  -0.0000000  -0.0000000  -0.0000000  -0.0000000  -0.0000000  -0.0000000  -0.0000000  -0.0000000  -0.0000000  -0.0000000
 NQMom=    0.0000000   0.0000000   0.0000000   0.0000000   0.0000000   2.0440000   0.0000000   0.0000000   0.0000000   0.0000000
 NMagM=    0.0000000   0.0000000   0.0000000   0.0000000   0.0000000   0.4037610   0.0000000   0.0000000   0.0000000   0.0000000
 AtZNuc=   6.0000000   6.0000000   6.0000000   6.0000000   6.0000000   7.0000000   6.0000000   6.0000000   6.0000000   6.0000000

  Atom        11          12          13          14          15          16          17          18          19          20
 IAtWgt=          12          12          12          12          12          12          12          12          12          12
 AtmWgt=  12.0000000  12.0000000  12.0000000  12.0000000  12.0000000  12.0000000  12.0000000  12.0000000  12.0000000  12.0000000
 NucSpn=           0           0           0           0           0           0           0           0           0           0
 AtZEff=  -0.0000000  -0.0000000  -0.0000000  -0.0000000  -0.0000000  -0.0000000  -0.0000000  -0.0000000  -0.0000000  -0.0000000
 NQMom=    0.0000000   0.0000000   0.0000000   0.0000000   0.0000000   0.0000000   0.0000000   0.0000000   0.0000000   0.0000000
 NMagM=    0.0000000   0.0000000   0.0000000   0.0000000   0.0000000   0.0000000   0.0000000   0.0000000   0.0000000   0.0000000
 AtZNuc=   6.0000000   6.0000000   6.0000000   6.0000000   6.0000000   6.0000000   6.0000000   6.0000000   6.0000000   6.0000000

  Atom        21          22          23          24          25          26          27          28          29          30
 IAtWgt=          12          79           1           1           1           1           1           1           1           1
 AtmWgt=  12.0000000  78.9183361   1.0078250   1.0078250   1.0078250   1.0078250   1.0078250   1.0078250   1.0078250   1.0078250
 NucSpn=           0           3           1           1           1           1           1           1           1           1
 AtZEff=  -0.0000000  -0.0000000  -0.0000000  -0.0000000  -0.0000000  -0.0000000  -0.0000000  -0.0000000  -0.0000000  -0.0000000
 NQMom=    0.0000000  31.3000000   0.0000000   0.0000000   0.0000000   0.0000000   0.0000000   0.0000000   0.0000000   0.0000000
 NMagM=    0.0000000   2.1063990   2.7928460   2.7928460   2.7928460   2.7928460   2.7928460   2.7928460   2.7928460   2.7928460
 AtZNuc=   6.0000000  35.0000000   1.0000000   1.0000000   1.0000000   1.0000000   1.0000000   1.0000000   1.0000000   1.0000000

  Atom        31          32          33          34          35          36          37          38          39          40
 IAtWgt=           1           1           1           1           1           1           1           1           1           1
 AtmWgt=   1.0078250   1.0078250   1.0078250   1.0078250   1.0078250   1.0078250   1.0078250   1.0078250   1.0078250   1.0078250
 NucSpn=           1           1           1           1           1           1           1           1           1           1
 AtZEff=  -0.0000000  -0.0000000  -0.0000000  -0.0000000  -0.0000000  -0.0000000  -0.0000000  -0.0000000  -0.0000000  -0.0000000
 NQMom=    0.0000000   0.0000000   0.0000000   0.0000000   0.0000000   0.0000000   0.0000000   0.0000000   0.0000000   0.0000000
 NMagM=    2.7928460   2.7928460   2.7928460   2.7928460   2.7928460   2.7928460   2.7928460   2.7928460   2.7928460   2.7928460
 AtZNuc=   1.0000000   1.0000000   1.0000000   1.0000000   1.0000000   1.0000000   1.0000000   1.0000000   1.0000000   1.0000000

  Atom        41          42          43          44          45          46          47          48          49          50
 IAtWgt=           1           1           1           1           1           1           1           1           1           1
 AtmWgt=   1.0078250   1.0078250   1.0078250   1.0078250   1.0078250   1.0078250   1.0078250   1.0078250   1.0078250   1.0078250
 NucSpn=           1           1           1           1           1           1           1           1           1           1
 AtZEff=  -0.0000000  -0.0000000  -0.0000000  -0.0000000  -0.0000000  -0.0000000  -0.0000000  -0.0000000  -0.0000000  -0.0000000
 NQMom=    0.0000000   0.0000000   0.0000000   0.0000000   0.0000000   0.0000000   0.0000000   0.0000000   0.0000000   0.0000000
 NMagM=    2.7928460   2.7928460   2.7928460   2.7928460   2.7928460   2.7928460   2.7928460   2.7928460   2.7928460   2.7928460
 AtZNuc=   1.0000000   1.0000000   1.0000000   1.0000000   1.0000000   1.0000000   1.0000000   1.0000000   1.0000000   1.0000000

  Atom        51          52          53          54          55          56          57          58          59          60
 IAtWgt=           1           1           1           1           1           1           1           1           1           1
 AtmWgt=   1.0078250   1.0078250   1.0078250   1.0078250   1.0078250   1.0078250   1.0078250   1.0078250   1.0078250   1.0078250
 NucSpn=           1           1           1           1           1           1           1           1           1           1
 AtZEff=  -0.0000000  -0.0000000  -0.0000000  -0.0000000  -0.0000000  -0.0000000  -0.0000000  -0.0000000  -0.0000000  -0.0000000
 NQMom=    0.0000000   0.0000000   0.0000000   0.0000000   0.0000000   0.0000000   0.0000000   0.0000000   0.0000000   0.0000000
 NMagM=    2.7928460   2.7928460   2.7928460   2.7928460   2.7928460   2.7928460   2.7928460   2.7928460   2.7928460   2.7928460
 AtZNuc=   1.0000000   1.0000000   1.0000000   1.0000000   1.0000000   1.0000000   1.0000000   1.0000000   1.0000000   1.0000000

  Atom        61          62          63          64          65          66
 IAtWgt=           1           1           1           1           1           1
 AtmWgt=   1.0078250   1.0078250   1.0078250   1.0078250   1.0078250   1.0078250
 NucSpn=           1           1           1           1           1           1
 AtZEff=  -0.0000000  -0.0000000  -0.0000000  -0.0000000  -0.0000000  -0.0000000
 NQMom=    0.0000000   0.0000000   0.0000000   0.0000000   0.0000000   0.0000000
 NMagM=    2.7928460   2.7928460   2.7928460   2.7928460   2.7928460   2.7928460
 AtZNuc=   1.0000000   1.0000000   1.0000000   1.0000000   1.0000000   1.0000000
 Leave Link  101 at Sat Aug 21 09:33:12 2021, MaxMem=   104857600 cpu:               2.4 elap:               0.1
 (Enter /sw/arch/RedHatEnterpriseServer7/EB_production/2020/software/Gaussian/g16.c01/l103.exe)

 GradGradGradGradGradGradGradGradGradGradGradGradGradGradGradGradGradGrad
 Berny optimization.
 Initialization pass.
                           ----------------------------
                           !    Initial Parameters    !
                           ! (Angstroms and Degrees)  !
 --------------------------                            --------------------------
 ! Name  Definition              Value          Derivative Info.                !
 --------------------------------------------------------------------------------
 ! R1    R(1,2)                  1.5289         estimate D2E/DX2                !
 ! R2    R(1,23)                 1.1083         estimate D2E/DX2                !
 ! R3    R(1,24)                 1.1108         estimate D2E/DX2                !
 ! R4    R(1,25)                 1.1103         estimate D2E/DX2                !
 ! R5    R(2,3)                  1.5435         estimate D2E/DX2                !
 ! R6    R(2,26)                 1.1118         estimate D2E/DX2                !
 ! R7    R(2,27)                 1.1119         estimate D2E/DX2                !
 ! R8    R(3,4)                  1.5395         estimate D2E/DX2                !
 ! R9    R(3,28)                 1.1122         estimate D2E/DX2                !
 ! R10   R(3,29)                 1.1124         estimate D2E/DX2                !
 ! R11   R(4,5)                  1.5505         estimate D2E/DX2                !
 ! R12   R(4,30)                 1.1113         estimate D2E/DX2                !
 ! R13   R(4,31)                 1.1092         estimate D2E/DX2                !
 ! R14   R(5,6)                  1.5105         estimate D2E/DX2                !
 ! R15   R(5,32)                 1.0996         estimate D2E/DX2                !
 ! R16   R(5,33)                 1.1126         estimate D2E/DX2                !
 ! R17   R(6,7)                  1.508          estimate D2E/DX2                !
 ! R18   R(6,12)                 1.5174         estimate D2E/DX2                !
 ! R19   R(6,17)                 1.5076         estimate D2E/DX2                !
 ! R20   R(7,8)                  1.5461         estimate D2E/DX2                !
 ! R21   R(7,34)                 1.1118         estimate D2E/DX2                !
 ! R22   R(7,35)                 1.1015         estimate D2E/DX2                !
 ! R23   R(8,9)                  1.5379         estimate D2E/DX2                !
 ! R24   R(8,36)                 1.1074         estimate D2E/DX2                !
 ! R25   R(8,37)                 1.1068         estimate D2E/DX2                !
 ! R26   R(9,10)                 1.5369         estimate D2E/DX2                !
 ! R27   R(9,38)                 1.1122         estimate D2E/DX2                !
 ! R28   R(9,39)                 1.1124         estimate D2E/DX2                !
 ! R29   R(10,11)                1.5285         estimate D2E/DX2                !
 ! R30   R(10,40)                1.1116         estimate D2E/DX2                !
 ! R31   R(10,41)                1.1117         estimate D2E/DX2                !
 ! R32   R(11,42)                1.1103         estimate D2E/DX2                !
 ! R33   R(11,43)                1.1107         estimate D2E/DX2                !
 ! R34   R(11,44)                1.1084         estimate D2E/DX2                !
 ! R35   R(12,13)                1.5569         estimate D2E/DX2                !
 ! R36   R(12,45)                1.1111         estimate D2E/DX2                !
 ! R37   R(12,46)                1.1138         estimate D2E/DX2                !
 ! R38   R(13,14)                1.5407         estimate D2E/DX2                !
 ! R39   R(13,47)                1.11           estimate D2E/DX2                !
 ! R40   R(13,48)                1.1028         estimate D2E/DX2                !
 ! R41   R(14,15)                1.54           estimate D2E/DX2                !
 ! R42   R(14,49)                1.1123         estimate D2E/DX2                !
 ! R43   R(14,50)                1.1121         estimate D2E/DX2                !
 ! R44   R(15,16)                1.5288         estimate D2E/DX2                !
 ! R45   R(15,51)                1.11           estimate D2E/DX2                !
 ! R46   R(15,52)                1.1115         estimate D2E/DX2                !
 ! R47   R(16,53)                1.1087         estimate D2E/DX2                !
 ! R48   R(16,54)                1.1104         estimate D2E/DX2                !
 ! R49   R(16,55)                1.1107         estimate D2E/DX2                !
 ! R50   R(17,18)                1.55           estimate D2E/DX2                !
 ! R51   R(17,56)                1.1056         estimate D2E/DX2                !
 ! R52   R(17,57)                1.1023         estimate D2E/DX2                !
 ! R53   R(18,19)                1.5364         estimate D2E/DX2                !
 ! R54   R(18,58)                1.1079         estimate D2E/DX2                !
 ! R55   R(18,59)                1.1117         estimate D2E/DX2                !
 ! R56   R(19,20)                1.5364         estimate D2E/DX2                !
 ! R57   R(19,60)                1.1123         estimate D2E/DX2                !
 ! R58   R(19,61)                1.1122         estimate D2E/DX2                !
 ! R59   R(20,21)                1.5286         estimate D2E/DX2                !
 ! R60   R(20,62)                1.1117         estimate D2E/DX2                !
 ! R61   R(20,63)                1.1116         estimate D2E/DX2                !
 ! R62   R(21,64)                1.1104         estimate D2E/DX2                !
 ! R63   R(21,65)                1.1096         estimate D2E/DX2                !
 ! R64   R(21,66)                1.1108         estimate D2E/DX2                !
 ! R65   R(22,32)                2.6282         estimate D2E/DX2                !
 ! R66   R(22,35)                2.6408         estimate D2E/DX2                !
 ! R67   R(22,57)                2.65           estimate D2E/DX2                !
 ! A1    A(2,1,23)             111.2591         estimate D2E/DX2                !
 ! A2    A(2,1,24)             110.2208         estimate D2E/DX2                !
 ! A3    A(2,1,25)             109.4332         estimate D2E/DX2                !
 ! A4    A(23,1,24)            109.0694         estimate D2E/DX2                !
 ! A5    A(23,1,25)            108.3444         estimate D2E/DX2                !
 ! A6    A(24,1,25)            108.4488         estimate D2E/DX2                !
 ! A7    A(1,2,3)              112.5454         estimate D2E/DX2                !
 ! A8    A(1,2,26)             109.5201         estimate D2E/DX2                !
 ! A9    A(1,2,27)             107.647          estimate D2E/DX2                !
 ! A10   A(3,2,26)             111.1514         estimate D2E/DX2                !
 ! A11   A(3,2,27)             108.7881         estimate D2E/DX2                !
 ! A12   A(26,2,27)            106.9695         estimate D2E/DX2                !
 ! A13   A(2,3,4)              113.6448         estimate D2E/DX2                !
 ! A14   A(2,3,28)             107.9938         estimate D2E/DX2                !
 ! A15   A(2,3,29)             111.3227         estimate D2E/DX2                !
 ! A16   A(4,3,28)             107.1973         estimate D2E/DX2                !
 ! A17   A(4,3,29)             110.0549         estimate D2E/DX2                !
 ! A18   A(28,3,29)            106.2491         estimate D2E/DX2                !
 ! A19   A(3,4,5)              112.7151         estimate D2E/DX2                !
 ! A20   A(3,4,30)             108.2085         estimate D2E/DX2                !
 ! A21   A(3,4,31)             107.3015         estimate D2E/DX2                !
 ! A22   A(5,4,30)             110.2387         estimate D2E/DX2                !
 ! A23   A(5,4,31)             110.1931         estimate D2E/DX2                !
 ! A24   A(30,4,31)            108.0249         estimate D2E/DX2                !
 ! A25   A(4,5,6)              116.1249         estimate D2E/DX2                !
 ! A26   A(4,5,32)             107.4673         estimate D2E/DX2                !
 ! A27   A(4,5,33)             106.7409         estimate D2E/DX2                !
 ! A28   A(6,5,32)             110.6594         estimate D2E/DX2                !
 ! A29   A(6,5,33)             110.3593         estimate D2E/DX2                !
 ! A30   A(32,5,33)            104.811          estimate D2E/DX2                !
 ! A31   A(5,6,7)              108.8737         estimate D2E/DX2                !
 ! A32   A(5,6,12)             107.3087         estimate D2E/DX2                !
 ! A33   A(5,6,17)             108.7705         estimate D2E/DX2                !
 ! A34   A(7,6,12)             109.4512         estimate D2E/DX2                !
 ! A35   A(7,6,17)             110.4704         estimate D2E/DX2                !
 ! A36   A(12,6,17)            111.8692         estimate D2E/DX2                !
 ! A37   A(6,7,8)              116.8497         estimate D2E/DX2                !
 ! A38   A(6,7,34)             110.5382         estimate D2E/DX2                !
 ! A39   A(6,7,35)             110.3304         estimate D2E/DX2                !
 ! A40   A(8,7,34)             105.122          estimate D2E/DX2                !
 ! A41   A(8,7,35)             108.1023         estimate D2E/DX2                !
 ! A42   A(34,7,35)            105.1611         estimate D2E/DX2                !
 ! A43   A(7,8,9)              110.5603         estimate D2E/DX2                !
 ! A44   A(7,8,36)             111.5616         estimate D2E/DX2                !
 ! A45   A(7,8,37)             108.8504         estimate D2E/DX2                !
 ! A46   A(9,8,36)             107.8193         estimate D2E/DX2                !
 ! A47   A(9,8,37)             107.8563         estimate D2E/DX2                !
 ! A48   A(36,8,37)            110.1234         estimate D2E/DX2                !
 ! A49   A(8,9,10)             112.6856         estimate D2E/DX2                !
 ! A50   A(8,9,38)             108.7468         estimate D2E/DX2                !
 ! A51   A(8,9,39)             110.0876         estimate D2E/DX2                !
 ! A52   A(10,9,38)            107.8573         estimate D2E/DX2                !
 ! A53   A(10,9,39)            109.7435         estimate D2E/DX2                !
 ! A54   A(38,9,39)            107.5588         estimate D2E/DX2                !
 ! A55   A(9,10,11)            112.7422         estimate D2E/DX2                !
 ! A56   A(9,10,40)            108.3741         estimate D2E/DX2                !
 ! A57   A(9,10,41)            110.2518         estimate D2E/DX2                !
 ! A58   A(11,10,40)           108.1279         estimate D2E/DX2                !
 ! A59   A(11,10,41)           109.6371         estimate D2E/DX2                !
 ! A60   A(40,10,41)           107.5421         estimate D2E/DX2                !
 ! A61   A(10,11,42)           109.3855         estimate D2E/DX2                !
 ! A62   A(10,11,43)           110.5344         estimate D2E/DX2                !
 ! A63   A(10,11,44)           110.8232         estimate D2E/DX2                !
 ! A64   A(42,11,43)           108.5192         estimate D2E/DX2                !
 ! A65   A(42,11,44)           108.0598         estimate D2E/DX2                !
 ! A66   A(43,11,44)           109.4526         estimate D2E/DX2                !
 ! A67   A(6,12,13)            117.6876         estimate D2E/DX2                !
 ! A68   A(6,12,45)            110.0741         estimate D2E/DX2                !
 ! A69   A(6,12,46)            110.9664         estimate D2E/DX2                !
 ! A70   A(13,12,45)           108.2076         estimate D2E/DX2                !
 ! A71   A(13,12,46)           104.8809         estimate D2E/DX2                !
 ! A72   A(45,12,46)           104.0656         estimate D2E/DX2                !
 ! A73   A(12,13,14)           112.019          estimate D2E/DX2                !
 ! A74   A(12,13,47)           108.8188         estimate D2E/DX2                !
 ! A75   A(12,13,48)           113.0509         estimate D2E/DX2                !
 ! A76   A(14,13,47)           106.9525         estimate D2E/DX2                !
 ! A77   A(14,13,48)           109.2753         estimate D2E/DX2                !
 ! A78   A(47,13,48)           106.3892         estimate D2E/DX2                !
 ! A79   A(13,14,15)           113.3842         estimate D2E/DX2                !
 ! A80   A(13,14,49)           109.1684         estimate D2E/DX2                !
 ! A81   A(13,14,50)           109.3773         estimate D2E/DX2                !
 ! A82   A(15,14,49)           109.2193         estimate D2E/DX2                !
 ! A83   A(15,14,50)           109.0594         estimate D2E/DX2                !
 ! A84   A(49,14,50)           106.3946         estimate D2E/DX2                !
 ! A85   A(14,15,16)           112.4424         estimate D2E/DX2                !
 ! A86   A(14,15,51)           111.0559         estimate D2E/DX2                !
 ! A87   A(14,15,52)           108.4857         estimate D2E/DX2                !
 ! A88   A(16,15,51)           109.3704         estimate D2E/DX2                !
 ! A89   A(16,15,52)           107.9814         estimate D2E/DX2                !
 ! A90   A(51,15,52)           107.3221         estimate D2E/DX2                !
 ! A91   A(15,16,53)           111.1089         estimate D2E/DX2                !
 ! A92   A(15,16,54)           109.4226         estimate D2E/DX2                !
 ! A93   A(15,16,55)           110.3213         estimate D2E/DX2                !
 ! A94   A(53,16,54)           108.2969         estimate D2E/DX2                !
 ! A95   A(53,16,55)           109.138          estimate D2E/DX2                !
 ! A96   A(54,16,55)           108.4899         estimate D2E/DX2                !
 ! A97   A(6,17,18)            115.2046         estimate D2E/DX2                !
 ! A98   A(6,17,56)            111.6291         estimate D2E/DX2                !
 ! A99   A(6,17,57)            110.7963         estimate D2E/DX2                !
 ! A100  A(18,17,56)           107.8295         estimate D2E/DX2                !
 ! A101  A(18,17,57)           107.4668         estimate D2E/DX2                !
 ! A102  A(56,17,57)           103.1365         estimate D2E/DX2                !
 ! A103  A(17,18,19)           111.1208         estimate D2E/DX2                !
 ! A104  A(17,18,58)           110.2538         estimate D2E/DX2                !
 ! A105  A(17,18,59)           109.3284         estimate D2E/DX2                !
 ! A106  A(19,18,58)           109.3061         estimate D2E/DX2                !
 ! A107  A(19,18,59)           108.3587         estimate D2E/DX2                !
 ! A108  A(58,18,59)           108.4097         estimate D2E/DX2                !
 ! A109  A(18,19,20)           112.6381         estimate D2E/DX2                !
 ! A110  A(18,19,60)           109.9076         estimate D2E/DX2                !
 ! A111  A(18,19,61)           108.7801         estimate D2E/DX2                !
 ! A112  A(20,19,60)           109.6511         estimate D2E/DX2                !
 ! A113  A(20,19,61)           108.0442         estimate D2E/DX2                !
 ! A114  A(60,19,61)           107.6755         estimate D2E/DX2                !
 ! A115  A(19,20,21)           112.7414         estimate D2E/DX2                !
 ! A116  A(19,20,62)           110.1739         estimate D2E/DX2                !
 ! A117  A(19,20,63)           108.3656         estimate D2E/DX2                !
 ! A118  A(21,20,62)           109.5972         estimate D2E/DX2                !
 ! A119  A(21,20,63)           108.2353         estimate D2E/DX2                !
 ! A120  A(62,20,63)           107.5674         estimate D2E/DX2                !
 ! A121  A(20,21,64)           109.379          estimate D2E/DX2                !
 ! A122  A(20,21,65)           110.7786         estimate D2E/DX2                !
 ! A123  A(20,21,66)           110.522          estimate D2E/DX2                !
 ! A124  A(64,21,65)           108.0651         estimate D2E/DX2                !
 ! A125  A(64,21,66)           108.5321         estimate D2E/DX2                !
 ! A126  A(65,21,66)           109.4994         estimate D2E/DX2                !
 ! A127  A(32,22,35)            58.2849         estimate D2E/DX2                !
 ! A128  A(32,22,57)            57.5853         estimate D2E/DX2                !
 ! A129  A(35,22,57)            56.1468         estimate D2E/DX2                !
 ! A130  A(5,32,22)            142.0246         estimate D2E/DX2                !
 ! A131  A(7,35,22)            143.8772         estimate D2E/DX2                !
 ! A132  A(17,57,22)           140.5814         estimate D2E/DX2                !
 ! D1    D(23,1,2,3)           -60.9432         estimate D2E/DX2                !
 ! D2    D(23,1,2,26)           63.2295         estimate D2E/DX2                !
 ! D3    D(23,1,2,27)          179.1887         estimate D2E/DX2                !
 ! D4    D(24,1,2,3)            60.1815         estimate D2E/DX2                !
 ! D5    D(24,1,2,26)         -175.6458         estimate D2E/DX2                !
 ! D6    D(24,1,2,27)          -59.6867         estimate D2E/DX2                !
 ! D7    D(25,1,2,3)           179.3624         estimate D2E/DX2                !
 ! D8    D(25,1,2,26)          -56.4649         estimate D2E/DX2                !
 ! D9    D(25,1,2,27)           59.4942         estimate D2E/DX2                !
 ! D10   D(1,2,3,4)            101.4552         estimate D2E/DX2                !
 ! D11   D(1,2,3,28)          -139.7575         estimate D2E/DX2                !
 ! D12   D(1,2,3,29)           -23.4873         estimate D2E/DX2                !
 ! D13   D(26,2,3,4)           -21.8116         estimate D2E/DX2                !
 ! D14   D(26,2,3,28)           96.9757         estimate D2E/DX2                !
 ! D15   D(26,2,3,29)         -146.7541         estimate D2E/DX2                !
 ! D16   D(27,2,3,4)          -139.3395         estimate D2E/DX2                !
 ! D17   D(27,2,3,28)          -20.5522         estimate D2E/DX2                !
 ! D18   D(27,2,3,29)           95.718          estimate D2E/DX2                !
 ! D19   D(2,3,4,5)            -66.7113         estimate D2E/DX2                !
 ! D20   D(2,3,4,30)            55.4627         estimate D2E/DX2                !
 ! D21   D(2,3,4,31)           171.7993         estimate D2E/DX2                !
 ! D22   D(28,3,4,5)           174.046          estimate D2E/DX2                !
 ! D23   D(28,3,4,30)          -63.78           estimate D2E/DX2                !
 ! D24   D(28,3,4,31)           52.5566         estimate D2E/DX2                !
 ! D25   D(29,3,4,5)            58.9079         estimate D2E/DX2                !
 ! D26   D(29,3,4,30)         -178.9181         estimate D2E/DX2                !
 ! D27   D(29,3,4,31)          -62.5815         estimate D2E/DX2                !
 ! D28   D(3,4,5,6)           -166.0387         estimate D2E/DX2                !
 ! D29   D(3,4,5,32)            69.4702         estimate D2E/DX2                !
 ! D30   D(3,4,5,33)           -42.5233         estimate D2E/DX2                !
 ! D31   D(30,4,5,6)            72.9381         estimate D2E/DX2                !
 ! D32   D(30,4,5,32)          -51.553          estimate D2E/DX2                !
 ! D33   D(30,4,5,33)         -163.5464         estimate D2E/DX2                !
 ! D34   D(31,4,5,6)           -46.2049         estimate D2E/DX2                !
 ! D35   D(31,4,5,32)         -170.6961         estimate D2E/DX2                !
 ! D36   D(31,4,5,33)           77.3105         estimate D2E/DX2                !
 ! D37   D(4,5,6,7)            -49.6494         estimate D2E/DX2                !
 ! D38   D(4,5,6,12)            68.72           estimate D2E/DX2                !
 ! D39   D(4,5,6,17)          -170.0829         estimate D2E/DX2                !
 ! D40   D(32,5,6,7)            73.1851         estimate D2E/DX2                !
 ! D41   D(32,5,6,12)         -168.4455         estimate D2E/DX2                !
 ! D42   D(32,5,6,17)          -47.2484         estimate D2E/DX2                !
 ! D43   D(33,5,6,7)          -171.2631         estimate D2E/DX2                !
 ! D44   D(33,5,6,12)          -52.8937         estimate D2E/DX2                !
 ! D45   D(33,5,6,17)           68.3033         estimate D2E/DX2                !
 ! D46   D(4,5,32,22)           99.1887         estimate D2E/DX2                !
 ! D47   D(6,5,32,22)          -28.5447         estimate D2E/DX2                !
 ! D48   D(33,5,32,22)        -147.511          estimate D2E/DX2                !
 ! D49   D(5,6,7,8)           -176.9952         estimate D2E/DX2                !
 ! D50   D(5,6,7,34)            62.8791         estimate D2E/DX2                !
 ! D51   D(5,6,7,35)           -53.0113         estimate D2E/DX2                !
 ! D52   D(12,6,7,8)            65.992          estimate D2E/DX2                !
 ! D53   D(12,6,7,34)          -54.1338         estimate D2E/DX2                !
 ! D54   D(12,6,7,35)         -170.0241         estimate D2E/DX2                !
 ! D55   D(17,6,7,8)           -57.6152         estimate D2E/DX2                !
 ! D56   D(17,6,7,34)         -177.741          estimate D2E/DX2                !
 ! D57   D(17,6,7,35)           66.3687         estimate D2E/DX2                !
 ! D58   D(5,6,12,13)          150.8653         estimate D2E/DX2                !
 ! D59   D(5,6,12,45)          -84.5624         estimate D2E/DX2                !
 ! D60   D(5,6,12,46)           30.0911         estimate D2E/DX2                !
 ! D61   D(7,6,12,13)          -91.1399         estimate D2E/DX2                !
 ! D62   D(7,6,12,45)           33.4324         estimate D2E/DX2                !
 ! D63   D(7,6,12,46)          148.0859         estimate D2E/DX2                !
 ! D64   D(17,6,12,13)          31.6392         estimate D2E/DX2                !
 ! D65   D(17,6,12,45)         156.2115         estimate D2E/DX2                !
 ! D66   D(17,6,12,46)         -89.135          estimate D2E/DX2                !
 ! D67   D(5,6,17,18)          -48.7355         estimate D2E/DX2                !
 ! D68   D(5,6,17,56)         -172.148          estimate D2E/DX2                !
 ! D69   D(5,6,17,57)           73.5141         estimate D2E/DX2                !
 ! D70   D(7,6,17,18)         -168.1779         estimate D2E/DX2                !
 ! D71   D(7,6,17,56)           68.4097         estimate D2E/DX2                !
 ! D72   D(7,6,17,57)          -45.9283         estimate D2E/DX2                !
 ! D73   D(12,6,17,18)          69.6243         estimate D2E/DX2                !
 ! D74   D(12,6,17,56)         -53.7881         estimate D2E/DX2                !
 ! D75   D(12,6,17,57)        -168.1261         estimate D2E/DX2                !
 ! D76   D(6,7,8,9)            172.3022         estimate D2E/DX2                !
 ! D77   D(6,7,8,36)            52.3259         estimate D2E/DX2                !
 ! D78   D(6,7,8,37)           -69.3965         estimate D2E/DX2                !
 ! D79   D(34,7,8,9)           -64.7328         estimate D2E/DX2                !
 ! D80   D(34,7,8,36)          175.2909         estimate D2E/DX2                !
 ! D81   D(34,7,8,37)           53.5685         estimate D2E/DX2                !
 ! D82   D(35,7,8,9)            47.1903         estimate D2E/DX2                !
 ! D83   D(35,7,8,36)          -72.786          estimate D2E/DX2                !
 ! D84   D(35,7,8,37)          165.4916         estimate D2E/DX2                !
 ! D85   D(6,7,35,22)          -16.04           estimate D2E/DX2                !
 ! D86   D(8,7,35,22)          112.8523         estimate D2E/DX2                !
 ! D87   D(34,7,35,22)        -135.2509         estimate D2E/DX2                !
 ! D88   D(7,8,9,10)          -178.7686         estimate D2E/DX2                !
 ! D89   D(7,8,9,38)           -59.2405         estimate D2E/DX2                !
 ! D90   D(7,8,9,39)            58.3623         estimate D2E/DX2                !
 ! D91   D(36,8,9,10)          -56.5707         estimate D2E/DX2                !
 ! D92   D(36,8,9,38)           62.9575         estimate D2E/DX2                !
 ! D93   D(36,8,9,39)         -179.4397         estimate D2E/DX2                !
 ! D94   D(37,8,9,10)           62.3252         estimate D2E/DX2                !
 ! D95   D(37,8,9,38)         -178.1466         estimate D2E/DX2                !
 ! D96   D(37,8,9,39)          -60.5438         estimate D2E/DX2                !
 ! D97   D(8,9,10,11)          -73.0851         estimate D2E/DX2                !
 ! D98   D(8,9,10,40)          167.2636         estimate D2E/DX2                !
 ! D99   D(8,9,10,41)           49.8071         estimate D2E/DX2                !
 ! D100  D(38,9,10,11)         166.8727         estimate D2E/DX2                !
 ! D101  D(38,9,10,40)          47.2213         estimate D2E/DX2                !
 ! D102  D(38,9,10,41)         -70.2352         estimate D2E/DX2                !
 ! D103  D(39,9,10,11)          49.9762         estimate D2E/DX2                !
 ! D104  D(39,9,10,40)         -69.6752         estimate D2E/DX2                !
 ! D105  D(39,9,10,41)         172.8683         estimate D2E/DX2                !
 ! D106  D(9,10,11,42)        -173.5969         estimate D2E/DX2                !
 ! D107  D(9,10,11,43)         -54.167          estimate D2E/DX2                !
 ! D108  D(9,10,11,44)          67.3623         estimate D2E/DX2                !
 ! D109  D(40,10,11,42)        -53.8033         estimate D2E/DX2                !
 ! D110  D(40,10,11,43)         65.6266         estimate D2E/DX2                !
 ! D111  D(40,10,11,44)       -172.8441         estimate D2E/DX2                !
 ! D112  D(41,10,11,42)         63.1684         estimate D2E/DX2                !
 ! D113  D(41,10,11,43)       -177.4017         estimate D2E/DX2                !
 ! D114  D(41,10,11,44)        -55.8724         estimate D2E/DX2                !
 ! D115  D(6,12,13,14)         168.2945         estimate D2E/DX2                !
 ! D116  D(6,12,13,47)         -73.6645         estimate D2E/DX2                !
 ! D117  D(6,12,13,48)          44.3035         estimate D2E/DX2                !
 ! D118  D(45,12,13,14)         42.7982         estimate D2E/DX2                !
 ! D119  D(45,12,13,47)        160.8392         estimate D2E/DX2                !
 ! D120  D(45,12,13,48)        -81.1929         estimate D2E/DX2                !
 ! D121  D(46,12,13,14)        -67.8191         estimate D2E/DX2                !
 ! D122  D(46,12,13,47)         50.2219         estimate D2E/DX2                !
 ! D123  D(46,12,13,48)        168.1898         estimate D2E/DX2                !
 ! D124  D(12,13,14,15)        -81.9103         estimate D2E/DX2                !
 ! D125  D(12,13,14,49)        156.0838         estimate D2E/DX2                !
 ! D126  D(12,13,14,50)         40.0423         estimate D2E/DX2                !
 ! D127  D(47,13,14,15)        158.9437         estimate D2E/DX2                !
 ! D128  D(47,13,14,49)         36.9377         estimate D2E/DX2                !
 ! D129  D(47,13,14,50)        -79.1038         estimate D2E/DX2                !
 ! D130  D(48,13,14,15)         44.1662         estimate D2E/DX2                !
 ! D131  D(48,13,14,49)        -77.8398         estimate D2E/DX2                !
 ! D132  D(48,13,14,50)        166.1187         estimate D2E/DX2                !
 ! D133  D(13,14,15,16)        -79.1617         estimate D2E/DX2                !
 ! D134  D(13,14,15,51)         43.7632         estimate D2E/DX2                !
 ! D135  D(13,14,15,52)        161.4805         estimate D2E/DX2                !
 ! D136  D(49,14,15,16)         42.8159         estimate D2E/DX2                !
 ! D137  D(49,14,15,51)        165.7408         estimate D2E/DX2                !
 ! D138  D(49,14,15,52)        -76.5419         estimate D2E/DX2                !
 ! D139  D(50,14,15,16)        158.7087         estimate D2E/DX2                !
 ! D140  D(50,14,15,51)        -78.3665         estimate D2E/DX2                !
 ! D141  D(50,14,15,52)         39.3509         estimate D2E/DX2                !
 ! D142  D(14,15,16,53)         61.4892         estimate D2E/DX2                !
 ! D143  D(14,15,16,54)       -178.9763         estimate D2E/DX2                !
 ! D144  D(14,15,16,55)        -59.6901         estimate D2E/DX2                !
 ! D145  D(51,15,16,53)        -62.377          estimate D2E/DX2                !
 ! D146  D(51,15,16,54)         57.1575         estimate D2E/DX2                !
 ! D147  D(51,15,16,55)        176.4438         estimate D2E/DX2                !
 ! D148  D(52,15,16,53)       -178.8595         estimate D2E/DX2                !
 ! D149  D(52,15,16,54)        -59.325          estimate D2E/DX2                !
 ! D150  D(52,15,16,55)         59.9613         estimate D2E/DX2                !
 ! D151  D(6,17,18,19)        -165.2683         estimate D2E/DX2                !
 ! D152  D(6,17,18,58)         -43.9145         estimate D2E/DX2                !
 ! D153  D(6,17,18,59)          75.1737         estimate D2E/DX2                !
 ! D154  D(56,17,18,19)        -39.8658         estimate D2E/DX2                !
 ! D155  D(56,17,18,58)         81.4879         estimate D2E/DX2                !
 ! D156  D(56,17,18,59)       -159.4238         estimate D2E/DX2                !
 ! D157  D(57,17,18,19)         70.7123         estimate D2E/DX2                !
 ! D158  D(57,17,18,58)       -167.934          estimate D2E/DX2                !
 ! D159  D(57,17,18,59)        -48.8457         estimate D2E/DX2                !
 ! D160  D(6,17,57,22)         -30.7401         estimate D2E/DX2                !
 ! D161  D(18,17,57,22)         95.9192         estimate D2E/DX2                !
 ! D162  D(56,17,57,22)       -150.312          estimate D2E/DX2                !
 ! D163  D(17,18,19,20)       -173.9358         estimate D2E/DX2                !
 ! D164  D(17,18,19,60)         63.4792         estimate D2E/DX2                !
 ! D165  D(17,18,19,61)        -54.181          estimate D2E/DX2                !
 ! D166  D(58,18,19,20)         64.1571         estimate D2E/DX2                !
 ! D167  D(58,18,19,60)        -58.4279         estimate D2E/DX2                !
 ! D168  D(58,18,19,61)       -176.0881         estimate D2E/DX2                !
 ! D169  D(59,18,19,20)        -53.801          estimate D2E/DX2                !
 ! D170  D(59,18,19,60)       -176.386          estimate D2E/DX2                !
 ! D171  D(59,18,19,61)         65.9538         estimate D2E/DX2                !
 ! D172  D(18,19,20,21)        -70.2749         estimate D2E/DX2                !
 ! D173  D(18,19,20,62)         52.5077         estimate D2E/DX2                !
 ! D174  D(18,19,20,63)        169.9457         estimate D2E/DX2                !
 ! D175  D(60,19,20,21)         52.4541         estimate D2E/DX2                !
 ! D176  D(60,19,20,62)        175.2366         estimate D2E/DX2                !
 ! D177  D(60,19,20,63)        -67.3254         estimate D2E/DX2                !
 ! D178  D(61,19,20,21)        169.5454         estimate D2E/DX2                !
 ! D179  D(61,19,20,62)        -67.672          estimate D2E/DX2                !
 ! D180  D(61,19,20,63)         49.766          estimate D2E/DX2                !
 ! D181  D(19,20,21,64)       -173.005          estimate D2E/DX2                !
 ! D182  D(19,20,21,65)         67.979          estimate D2E/DX2                !
 ! D183  D(19,20,21,66)        -53.571          estimate D2E/DX2                !
 ! D184  D(62,20,21,64)         63.8906         estimate D2E/DX2                !
 ! D185  D(62,20,21,65)        -55.1254         estimate D2E/DX2                !
 ! D186  D(62,20,21,66)       -176.6754         estimate D2E/DX2                !
 ! D187  D(63,20,21,64)        -53.1503         estimate D2E/DX2                !
 ! D188  D(63,20,21,65)       -172.1663         estimate D2E/DX2                !
 ! D189  D(63,20,21,66)         66.2837         estimate D2E/DX2                !
 ! D190  D(35,22,32,5)         -14.1106         estimate D2E/DX2                !
 ! D191  D(57,22,32,5)          53.3501         estimate D2E/DX2                !
 ! D192  D(32,22,35,7)          43.7167         estimate D2E/DX2                !
 ! D193  D(57,22,35,7)         -26.1474         estimate D2E/DX2                !
 ! D194  D(32,22,57,17)        -14.3642         estimate D2E/DX2                !
 ! D195  D(35,22,57,17)         56.7363         estimate D2E/DX2                !
 --------------------------------------------------------------------------------
 Trust Radius=3.00D-01 FncErr=1.00D-07 GrdErr=1.00D-06 EigMax=2.50D+02 EigMin=1.00D-04
 Number of steps in this run=    396 maximum allowed number of steps=    396.
 GradGradGradGradGradGradGradGradGradGradGradGradGradGradGradGradGradGrad

 Leave Link  103 at Sat Aug 21 09:33:13 2021, MaxMem=   104857600 cpu:               0.5 elap:               0.0
 (Enter /sw/arch/RedHatEnterpriseServer7/EB_production/2020/software/Gaussian/g16.c01/l202.exe)
 Stoichiometry    C20H44BrN
 Framework group  C1[X(C20H44BrN)]
 Deg. of freedom   192
 Full point group                 C1      NOp   1
 Largest Abelian subgroup         C1      NOp   1
 Largest concise Abelian subgroup C1      NOp   1
                         Standard orientation:                         
 ---------------------------------------------------------------------
 Center     Atomic      Atomic             Coordinates (Angstroms)
 Number     Number       Type             X           Y           Z
 ---------------------------------------------------------------------
      1          6           0        4.641217   -0.292312    2.020524
      2          6           0        3.746130   -1.361831    2.647107
      3          6           0        2.483502   -0.765742    3.304910
      4          6           0        1.213000   -0.912642    2.448059
      5          6           0        1.269481   -0.074429    1.144935
      6          7           0       -0.039026    0.104374    0.411893
      7          6           0       -0.694342   -1.243822    0.247648
      8          6           0       -2.020140   -1.283675   -0.546733
      9          6           0       -2.460183   -2.736983   -0.790603
     10          6           0       -3.760320   -2.834009   -1.604344
     11          6           0       -4.994769   -2.436705   -0.795356
     12          6           0       -0.919712    0.993043    1.270470
     13          6           0       -1.967541    1.888883    0.546946
     14          6           0       -2.974704    2.511110    1.532986
     15          6           0       -4.121639    1.558197    1.917859
     16          6           0       -5.204019    1.482725    0.840794
     17          6           0        0.239751    0.722611   -0.934501
     18          6           0        1.162328    1.967869   -0.910739
     19          6           0        1.095279    2.732050   -2.241972
     20          6           0        2.105998    3.886993   -2.312412
     21          6           0        1.744067    5.046384   -1.384317
     22         35           0        2.265082   -2.148411   -1.571626
     23          1           0        4.107899    0.260405    1.221543
     24          1           0        4.979747    0.427453    2.795863
     25          1           0        5.536173   -0.774691    1.574181
     26          1           0        3.478517   -2.119227    1.878484
     27          1           0        4.342011   -1.886218    3.425785
     28          1           0        2.302534   -1.310618    4.257461
     29          1           0        2.636362    0.301020    3.580725
     30          1           0        1.079174   -1.989265    2.207152
     31          1           0        0.354741   -0.591515    3.072948
     32          1           0        2.022023   -0.534905    0.488668
     33          1           0        1.698163    0.915136    1.418719
     34          1           0       -0.937355   -1.682841    1.239744
     35          1           0        0.005506   -1.955252   -0.218574
     36          1           0       -1.918650   -0.790309   -1.532932
     37          1           0       -2.808975   -0.785625    0.048825
     38          1           0       -1.661562   -3.261532   -1.359897
     39          1           0       -2.583774   -3.266683    0.179720
     40          1           0       -3.888378   -3.887266   -1.935948
     41          1           0       -3.691731   -2.201656   -2.516092
     42          1           0       -5.908001   -2.636440   -1.394476
     43          1           0       -5.052313   -3.027811    0.143220
     44          1           0       -4.974166   -1.355928   -0.550254
     45          1           0       -1.451361    0.382302    2.031261
     46          1           0       -0.305416    1.700682    1.872502
     47          1           0       -1.438570    2.729433    0.051092
     48          1           0       -2.517069    1.355605   -0.246669
     49          1           0       -3.401380    3.435323    1.084632
     50          1           0       -2.440414    2.827561    2.455579
     51          1           0       -3.738842    0.537526    2.127284
     52          1           0       -4.592816    1.933105    2.852147
     53          1           0       -4.792465    1.093533   -0.112281
     54          1           0       -6.012005    0.799098    1.176563
     55          1           0       -5.643356    2.487459    0.664382
     56          1           0       -0.694230    1.003165   -1.455356
     57          1           0        0.695413   -0.013764   -1.616479
     58          1           0        0.870630    2.645602   -0.084236
     59          1           0        2.212939    1.644325   -0.745267
     60          1           0        0.066949    3.124629   -2.401941
     61          1           0        1.320187    2.026363   -3.071632
     62          1           0        3.126329    3.518935   -2.068846
     63          1           0        2.127725    4.270258   -3.355607
     64          1           0        2.433681    5.896482   -1.570527
     65          1           0        1.847023    4.746348   -0.321041
     66          1           0        0.704118    5.387255   -1.574350
 ---------------------------------------------------------------------
 Rotational constants (GHZ):           0.1801610           0.1317954           0.1102010
 Leave Link  202 at Sat Aug 21 09:33:13 2021, MaxMem=   104857600 cpu:               0.6 elap:               0.1
 (Enter /sw/arch/RedHatEnterpriseServer7/EB_production/2020/software/Gaussian/g16.c01/l301.exe)
 Standard basis: TZVP (5D, 7F)
 Ernie: Thresh=  0.10000D-02 Tol=  0.10000D-05 Strict=F.
 There are   723 symmetry adapted cartesian basis functions of A   symmetry.
 There are   699 symmetry adapted basis functions of A   symmetry.
   699 basis functions,  1185 primitive gaussians,   723 cartesian basis functions
   103 alpha electrons      103 beta electrons
       nuclear repulsion energy      2503.1588646148 Hartrees.
 IExCor=  404 DFT=T Ex=B Corr=P86 ExCW=0 ScaHFX=  0.000000
 ScaDFX=  1.000000  1.000000  1.000000  1.000000 ScalE2=  1.000000  1.000000
 IRadAn=      5 IRanWt=     -1 IRanGd=            0 ICorTp=0 IEmpDi=131
 NAtoms=   66 NActive=   66 NUniq=   66 SFac= 1.00D+00 NAtFMM=   60 NAOKFM=T Big=T
 Integral buffers will be    131072 words long.
 Raffenetti 2 integral format.
 Two-electron integral symmetry is turned on.
 R6Disp:  Grimme-D3 Dispersion energy=       -0.0923026187 Hartrees.
 Nuclear repulsion after empirical dispersion term =     2503.0665619961 Hartrees.
 ------------------------------------------------------------------------------
 Polarizable Continuum Model (PCM)
 =================================
 Model                : PCM.
 Atomic radii         : UFF (Universal Force Field).
 Polarization charges : Total charges.
 Charge compensation  : None.
 Solution method      : On-the-fly selection.
 Cavity type          : Scaled VdW (van der Waals Surface) (Alpha=1.100).
 Cavity algorithm     : GePol (No added spheres)
                        Default sphere list used, NSphG=   66.
                        Lebedev-Laikov grids with approx.  5.0 points / Ang**2.
                        Smoothing algorithm: York/Karplus (Gamma=1.0000).
                        Polarization charges: spherical gaussians, with
                                              point-specific exponents (IZeta= 3).
                        Self-potential: point-specific (ISelfS= 7).
                        Self-field    : sphere-specific E.n sum rule (ISelfD= 2).
 1st derivatives      : Analytical E(r).r(x)/FMM algorithm (CHGder, D1EAlg=3).
                        Cavity 1st derivative terms included.
 Solvent              : Water, Eps=  78.355300 Eps(inf)=   1.777849
 ------------------------------------------------------------------------------
 GePol: Number of generator spheres                  =      66
 GePol: Total number of spheres                      =      66
 GePol: Number of exposed spheres                    =      65 ( 98.48%)
 GePol: Number of points                             =    3925
 GePol: Average weight of points                     =       0.13
 GePol: Minimum weight of points                     =   0.23D-10
 GePol: Maximum weight of points                     =    0.20577
 GePol: Number of points with low weight             =     282
 GePol: Fraction of low-weight points (<1% of avg)   =       7.18%
 GePol: Cavity surface area                          =    519.430 Ang**2
 GePol: Cavity volume                                =    591.450 Ang**3
 Leave Link  301 at Sat Aug 21 09:33:14 2021, MaxMem=   104857600 cpu:               2.5 elap:               0.1
 (Enter /sw/arch/RedHatEnterpriseServer7/EB_production/2020/software/Gaussian/g16.c01/l302.exe)
 NPDir=0 NMtPBC=     1 NCelOv=     1 NCel=       1 NClECP=     1 NCelD=      1
         NCelK=      1 NCelE2=     1 NClLst=     1 CellRange=     0.0.
 One-electron integrals computed using PRISM.
 One-electron integral symmetry used in STVInt
 PrsmSu:  requested number of processors reduced to:  12 ShMem   1 Linda.
 NBasis=   699 RedAO= T EigKep=  6.87D-05  NBF=   699
 NBsUse=   699 1.00D-06 EigRej= -1.00D+00 NBFU=   699
 Precomputing XC quadrature grid using
 IXCGrd= 4 IRadAn=           5 IRanWt=          -1 IRanGd=           0 AccXCQ= 0.00D+00.
 Generated NRdTot=       0 NPtTot=           0 NUsed=           0 NTot=          32
 NSgBfM=   693   690   693   693   693 MxSgAt=    66 MxSgA2=    66.
 Leave Link  302 at Sat Aug 21 09:33:15 2021, MaxMem=   104857600 cpu:              23.2 elap:               1.0
 (Enter /sw/arch/RedHatEnterpriseServer7/EB_production/2020/software/Gaussian/g16.c01/l303.exe)
 DipDrv:  MaxL=1.
 Leave Link  303 at Sat Aug 21 09:33:15 2021, MaxMem=   104857600 cpu:               3.5 elap:               0.2
 (Enter /sw/arch/RedHatEnterpriseServer7/EB_production/2020/software/Gaussian/g16.c01/l401.exe)
 ExpMin= 9.52D-02 ExpMax= 5.65D+05 ExpMxC= 5.46D+03 IAcc=3 IRadAn=         5 AccDes= 0.00D+00
 Harris functional with IExCor=  404 and IRadAn=       5 diagonalized for initial guess.
 HarFok:  IExCor=  404 AccDes= 0.00D+00 IRadAn=         5 IDoV= 1 UseB2=F ITyADJ=14
 ICtDFT=  3500011 ScaDFX=  1.000000  1.000000  1.000000  1.000000
 FoFCou: FMM=F IPFlag=           0 FMFlag=      100000 FMFlg1=        2001
         NFxFlg=           0 DoJE=T BraDBF=F KetDBF=T FulRan=T
         wScrn=  0.000000 ICntrl=       500 IOpCl=  0 I1Cent=   200000004 NGrid=           0
         NMat0=    1 NMatS0=      1 NMatT0=    0 NMatD0=    1 NMtDS0=    0 NMtDT0=    0
 Petite list used in FoFCou.
 Harris En= -3418.82060820277    
 JPrj=0 DoOrth=F DoCkMO=F.
 Leave Link  401 at Sat Aug 21 09:33:18 2021, MaxMem=   104857600 cpu:              66.8 elap:               2.8
 (Enter /sw/arch/RedHatEnterpriseServer7/EB_production/2020/software/Gaussian/g16.c01/l502.exe)
 Integral symmetry usage will be decided dynamically.
 Closed shell SCF:
 Using DIIS extrapolation, IDIIS=  1040.
 NGot=   104857600 LenX=   103785644 LenY=   103262192
 Requested convergence on RMS density matrix=1.00D-08 within 128 cycles.
 Requested convergence on MAX density matrix=1.00D-06.
 Requested convergence on             energy=1.00D-06.
 No special actions if energy rises.
 Fock matrices will be formed incrementally for  20 cycles.

 Cycle   1  Pass 1  IDiag  1:
 FoFJK:  IHMeth= 1 ICntrl=     500 DoSepK=F KAlg= 0 I1Cent=           0 FoldK=F
 IRaf= 930000000 NMat=       1 IRICut=       1 DoRegI=T DoRafI=F ISym2E= 0 IDoP0=0 IntGTp=1.
 FoFCou: FMM=T IPFlag=           0 FMFlag=      100000 FMFlg1=        2001
         NFxFlg=           0 DoJE=T BraDBF=F KetDBF=F FulRan=T
         wScrn=  0.000000 ICntrl=       500 IOpCl=  0 I1Cent=           0 NGrid=           0
         NMat0=    1 NMatS0=      1 NMatT0=    0 NMatD0=    1 NMtDS0=    0 NMtDT0=    0
 Symmetry not used in FoFCou.
 FMM levels:  10  Number of levels for PrismC:   9
 CoulSu:  requested number of processors reduced to:  19 ShMem   1 Linda.
 Inv3:  Mode=1 IEnd=    46216875.
 Iteration    1 A*A^-1 deviation from unit magnitude is 3.33D-15 for   1776.
 Iteration    1 A*A^-1 deviation from orthogonality  is 2.89D-15 for   3896   1776.
 Iteration    1 A^-1*A deviation from unit magnitude is 3.33D-15 for   1603.
 Iteration    1 A^-1*A deviation from orthogonality  is 1.88D-13 for   2960   2924.
 CoulSu:  requested number of processors reduced to:  19 ShMem   1 Linda.
 CoulSu:  requested number of processors reduced to:  19 ShMem   1 Linda.
 E= -3417.38728768930    
 DIIS: error= 1.99D-02 at cycle   1 NSaved=   1.
 NSaved= 1 IEnMin= 1 EnMin= -3417.38728768930     IErMin= 1 ErrMin= 1.99D-02
 ErrMax= 1.99D-02  0.00D+00 EMaxC= 1.00D-01 BMatC= 8.16D-01 BMatP= 8.16D-01
 IDIUse=3 WtCom= 8.01D-01 WtEn= 1.99D-01
 Coeff-Com:  0.100D+01
 Coeff-En:   0.100D+01
 Coeff:      0.100D+01
 Gap=     0.196 Goal=   None    Shift=    0.000
 GapD=    0.196 DampG=1.000 DampE=0.500 DampFc=0.5000 IDamp=-1.
 Damping current iteration by 5.00D-01
 RMSDP=3.23D-03 MaxDP=1.93D-01              OVMax= 2.10D-01

 Cycle   2  Pass 1  IDiag  1:
 RMSU=  1.61D-03    CP:  9.82D-01
 E= -3417.57858530056     Delta-E=       -0.191297611264 Rises=F Damp=T
 DIIS: error= 7.87D-03 at cycle   2 NSaved=   2.
 NSaved= 2 IEnMin= 2 EnMin= -3417.57858530056     IErMin= 2 ErrMin= 7.87D-03
 ErrMax= 7.87D-03  0.00D+00 EMaxC= 1.00D-01 BMatC= 1.18D-01 BMatP= 8.16D-01
 IDIUse=3 WtCom= 9.21D-01 WtEn= 7.87D-02
 Coeff-Com:  0.212D+00 0.788D+00
 Coeff-En:   0.373D+00 0.627D+00
 Coeff:      0.225D+00 0.775D+00
 Gap=     0.269 Goal=   None    Shift=    0.000
 RMSDP=1.08D-03 MaxDP=6.42D-02 DE=-1.91D-01 OVMax= 1.42D-01

 Cycle   3  Pass 1  IDiag  1:
 RMSU=  8.94D-04    CP:  9.86D-01  6.19D-01
 E= -3418.11547368332     Delta-E=       -0.536888382755 Rises=F Damp=F
 DIIS: error= 7.05D-03 at cycle   3 NSaved=   3.
 NSaved= 3 IEnMin= 3 EnMin= -3418.11547368332     IErMin= 3 ErrMin= 7.05D-03
 ErrMax= 7.05D-03  0.00D+00 EMaxC= 1.00D-01 BMatC= 4.71D-02 BMatP= 1.18D-01
 IDIUse=3 WtCom= 9.29D-01 WtEn= 7.05D-02
 Coeff-Com:  0.507D-01 0.383D+00 0.567D+00
 Coeff-En:   0.000D+00 0.000D+00 0.100D+01
 Coeff:      0.471D-01 0.356D+00 0.597D+00
 Gap=     0.200 Goal=   None    Shift=    0.000
 RMSDP=5.62D-04 MaxDP=3.47D-02 DE=-5.37D-01 OVMax= 4.31D-02

 Cycle   4  Pass 1  IDiag  1:
 RMSU=  3.83D-04    CP:  9.90D-01  7.20D-01  5.79D-01
 E= -3418.13686496659     Delta-E=       -0.021391283270 Rises=F Damp=F
 DIIS: error= 4.96D-03 at cycle   4 NSaved=   4.
 NSaved= 4 IEnMin= 4 EnMin= -3418.13686496659     IErMin= 4 ErrMin= 4.96D-03
 ErrMax= 4.96D-03  0.00D+00 EMaxC= 1.00D-01 BMatC= 2.00D-02 BMatP= 4.71D-02
 IDIUse=3 WtCom= 9.50D-01 WtEn= 4.96D-02
 Coeff-Com:  0.759D-02 0.137D+00 0.404D+00 0.451D+00
 Coeff-En:   0.000D+00 0.000D+00 0.341D+00 0.659D+00
 Coeff:      0.721D-02 0.131D+00 0.401D+00 0.461D+00
 Gap=     0.204 Goal=   None    Shift=    0.000
 RMSDP=2.70D-04 MaxDP=2.57D-02 DE=-2.14D-02 OVMax= 1.95D-02

 Cycle   5  Pass 1  IDiag  1:
 RMSU=  1.35D-04    CP:  9.86D-01  6.89D-01  6.67D-01  4.48D-01
 E= -3418.15429232489     Delta-E=       -0.017427358302 Rises=F Damp=F
 DIIS: error= 7.26D-04 at cycle   5 NSaved=   5.
 NSaved= 5 IEnMin= 5 EnMin= -3418.15429232489     IErMin= 5 ErrMin= 7.26D-04
 ErrMax= 7.26D-04  0.00D+00 EMaxC= 1.00D-01 BMatC= 5.54D-04 BMatP= 2.00D-02
 IDIUse=3 WtCom= 9.93D-01 WtEn= 7.26D-03
 Coeff-Com: -0.106D-02 0.185D-01 0.115D+00 0.210D+00 0.657D+00
 Coeff-En:   0.000D+00 0.000D+00 0.000D+00 0.000D+00 0.100D+01
 Coeff:     -0.105D-02 0.184D-01 0.114D+00 0.209D+00 0.660D+00
 Gap=     0.198 Goal=   None    Shift=    0.000
 RMSDP=5.79D-05 MaxDP=4.14D-03 DE=-1.74D-02 OVMax= 3.95D-03

 Cycle   6  Pass 1  IDiag  1:
 RMSU=  2.62D-05    CP:  9.87D-01  6.90D-01  6.97D-01  5.02D-01  7.12D-01
 E= -3418.15473770218     Delta-E=       -0.000445377286 Rises=F Damp=F
 DIIS: error= 2.59D-04 at cycle   6 NSaved=   6.
 NSaved= 6 IEnMin= 6 EnMin= -3418.15473770218     IErMin= 6 ErrMin= 2.59D-04
 ErrMax= 2.59D-04  0.00D+00 EMaxC= 1.00D-01 BMatC= 5.06D-05 BMatP= 5.54D-04
 IDIUse=3 WtCom= 9.97D-01 WtEn= 2.59D-03
 Coeff-Com: -0.122D-02 0.587D-02 0.561D-01 0.111D+00 0.380D+00 0.449D+00
 Coeff-En:   0.000D+00 0.000D+00 0.000D+00 0.000D+00 0.000D+00 0.100D+01
 Coeff:     -0.122D-02 0.585D-02 0.559D-01 0.110D+00 0.379D+00 0.450D+00
 Gap=     0.199 Goal=   None    Shift=    0.000
 RMSDP=1.30D-05 MaxDP=1.13D-03 DE=-4.45D-04 OVMax= 9.97D-04

 Cycle   7  Pass 1  IDiag  1:
 RMSU=  6.82D-06    CP:  9.87D-01  6.91D-01  6.88D-01  5.11D-01  7.38D-01
                    CP:  7.61D-01
 E= -3418.15478109774     Delta-E=       -0.000043395560 Rises=F Damp=F
 DIIS: error= 2.71D-05 at cycle   7 NSaved=   7.
 NSaved= 7 IEnMin= 7 EnMin= -3418.15478109774     IErMin= 7 ErrMin= 2.71D-05
 ErrMax= 2.71D-05  0.00D+00 EMaxC= 1.00D-01 BMatC= 1.22D-06 BMatP= 5.06D-05
 IDIUse=1 WtCom= 1.00D+00 WtEn= 0.00D+00
 Coeff-Com: -0.290D-03 0.995D-03 0.131D-01 0.269D-01 0.964D-01 0.176D+00
 Coeff-Com:  0.687D+00
 Coeff:     -0.290D-03 0.995D-03 0.131D-01 0.269D-01 0.964D-01 0.176D+00
 Coeff:      0.687D+00
 Gap=     0.199 Goal=   None    Shift=    0.000
 RMSDP=3.05D-06 MaxDP=1.27D-04 DE=-4.34D-05 OVMax= 1.96D-04

 Cycle   8  Pass 1  IDiag  1:
 RMSU=  2.30D-06    CP:  9.87D-01  6.90D-01  6.88D-01  5.10D-01  7.46D-01
                    CP:  7.33D-01  8.36D-01
 E= -3418.15478204810     Delta-E=       -0.000000950368 Rises=F Damp=F
 DIIS: error= 2.19D-05 at cycle   8 NSaved=   8.
 NSaved= 8 IEnMin= 8 EnMin= -3418.15478204810     IErMin= 8 ErrMin= 2.19D-05
 ErrMax= 2.19D-05  0.00D+00 EMaxC= 1.00D-01 BMatC= 2.32D-07 BMatP= 1.22D-06
 IDIUse=1 WtCom= 1.00D+00 WtEn= 0.00D+00
 Coeff-Com: -0.219D-04 0.110D-03 0.293D-02 0.659D-02 0.266D-01 0.618D-01
 Coeff-Com:  0.363D+00 0.539D+00
 Coeff:     -0.219D-04 0.110D-03 0.293D-02 0.659D-02 0.266D-01 0.618D-01
 Coeff:      0.363D+00 0.539D+00
 Gap=     0.199 Goal=   None    Shift=    0.000
 RMSDP=1.25D-06 MaxDP=1.25D-04 DE=-9.50D-07 OVMax= 1.25D-04

 Cycle   9  Pass 1  IDiag  1:
 RMSU=  5.10D-07    CP:  9.87D-01  6.91D-01  6.88D-01  5.10D-01  7.43D-01
                    CP:  7.50D-01  8.61D-01  7.43D-01
 E= -3418.15478225040     Delta-E=       -0.000000202298 Rises=F Damp=F
 DIIS: error= 7.04D-06 at cycle   9 NSaved=   9.
 NSaved= 9 IEnMin= 9 EnMin= -3418.15478225040     IErMin= 9 ErrMin= 7.04D-06
 ErrMax= 7.04D-06  0.00D+00 EMaxC= 1.00D-01 BMatC= 1.51D-08 BMatP= 2.32D-07
 IDIUse=1 WtCom= 1.00D+00 WtEn= 0.00D+00
 Coeff-Com:  0.804D-05-0.336D-04 0.282D-03 0.668D-03 0.336D-02 0.127D-01
 Coeff-Com:  0.118D+00 0.258D+00 0.607D+00
 Coeff:      0.804D-05-0.336D-04 0.282D-03 0.668D-03 0.336D-02 0.127D-01
 Coeff:      0.118D+00 0.258D+00 0.607D+00
 Gap=     0.199 Goal=   None    Shift=    0.000
 RMSDP=2.87D-07 MaxDP=3.53D-05 DE=-2.02D-07 OVMax= 3.03D-05

 Cycle  10  Pass 1  IDiag  1:
 RMSU=  1.73D-07    CP:  9.87D-01  6.91D-01  6.88D-01  5.10D-01  7.43D-01
                    CP:  7.51D-01  8.69D-01  7.43D-01  7.03D-01
 E= -3418.15478223784     Delta-E=        0.000000012560 Rises=F Damp=F
 DIIS: error= 5.28D-07 at cycle  10 NSaved=  10.
 NSaved=10 IEnMin= 9 EnMin= -3418.15478225040     IErMin=10 ErrMin= 5.28D-07
 ErrMax= 5.28D-07  0.00D+00 EMaxC= 1.00D-01 BMatC= 8.23D-10 BMatP= 1.51D-08
 IDIUse=1 WtCom= 1.00D+00 WtEn= 0.00D+00
 Coeff-Com:  0.408D-05-0.222D-04 0.942D-05 0.433D-04 0.592D-03 0.360D-02
 Coeff-Com:  0.412D-01 0.978D-01 0.301D+00 0.556D+00
 Coeff:      0.408D-05-0.222D-04 0.942D-05 0.433D-04 0.592D-03 0.360D-02
 Coeff:      0.412D-01 0.978D-01 0.301D+00 0.556D+00
 Gap=     0.199 Goal=   None    Shift=    0.000
 RMSDP=5.54D-08 MaxDP=2.19D-06 DE= 1.26D-08 OVMax= 3.42D-06

 Cycle  11  Pass 1  IDiag  1:
 RMSU=  3.61D-08    CP:  9.87D-01  6.91D-01  6.88D-01  5.10D-01  7.43D-01
                    CP:  7.51D-01  8.68D-01  7.47D-01  7.40D-01  8.30D-01
 E= -3418.15478225873     Delta-E=       -0.000000020887 Rises=F Damp=F
 DIIS: error= 2.77D-07 at cycle  11 NSaved=  11.
 NSaved=11 IEnMin=11 EnMin= -3418.15478225873     IErMin=11 ErrMin= 2.77D-07
 ErrMax= 2.77D-07  0.00D+00 EMaxC= 1.00D-01 BMatC= 6.48D-11 BMatP= 8.23D-10
 IDIUse=1 WtCom= 1.00D+00 WtEn= 0.00D+00
 Coeff-Com:  0.125D-05-0.652D-05-0.101D-04-0.133D-04 0.129D-03 0.824D-03
 Coeff-Com:  0.106D-01 0.265D-01 0.992D-01 0.282D+00 0.581D+00
 Coeff:      0.125D-05-0.652D-05-0.101D-04-0.133D-04 0.129D-03 0.824D-03
 Coeff:      0.106D-01 0.265D-01 0.992D-01 0.282D+00 0.581D+00
 Gap=     0.199 Goal=   None    Shift=    0.000
 RMSDP=1.81D-08 MaxDP=1.93D-06 DE=-2.09D-08 OVMax= 1.70D-06

 Cycle  12  Pass 1  IDiag  1:
 RMSU=  1.28D-08    CP:  9.87D-01  6.91D-01  6.88D-01  5.10D-01  7.43D-01
                    CP:  7.51D-01  8.68D-01  7.48D-01  7.52D-01  8.08D-01
                    CP:  8.33D-01
 E= -3418.15478225884     Delta-E=       -0.000000000106 Rises=F Damp=F
 DIIS: error= 7.92D-08 at cycle  12 NSaved=  12.
 NSaved=12 IEnMin=12 EnMin= -3418.15478225884     IErMin=12 ErrMin= 7.92D-08
 ErrMax= 7.92D-08  0.00D+00 EMaxC= 1.00D-01 BMatC= 4.14D-12 BMatP= 6.48D-11
 IDIUse=1 WtCom= 1.00D+00 WtEn= 0.00D+00
 Coeff-Com: -0.750D-07-0.804D-06-0.449D-05-0.888D-05 0.301D-05 0.198D-04
 Coeff-Com:  0.109D-02 0.345D-02 0.157D-01 0.737D-01 0.266D+00 0.640D+00
 Coeff:     -0.750D-07-0.804D-06-0.449D-05-0.888D-05 0.301D-05 0.198D-04
 Coeff:      0.109D-02 0.345D-02 0.157D-01 0.737D-01 0.266D+00 0.640D+00
 Gap=     0.199 Goal=   None    Shift=    0.000
 RMSDP=6.66D-09 MaxDP=7.01D-07 DE=-1.06D-10 OVMax= 6.79D-07

 Error on total polarization charges =  0.02650
 SCF Done:  E(RB-P86) =  -3418.15478226     A.U. after   12 cycles
            NFock= 12  Conv=0.67D-08     -V/T= 2.0029
 KE= 3.408430440091D+03 PE=-1.311046734643D+04 EE= 3.780815562087D+03
 Leave Link  502 at Sat Aug 21 09:35:52 2021, MaxMem=   104857600 cpu:            3631.7 elap:             153.6
 (Enter /sw/arch/RedHatEnterpriseServer7/EB_production/2020/software/Gaussian/g16.c01/l601.exe)
 Copying SCF densities to generalized density rwf, IOpCl= 0 IROHF=0.

 **********************************************************************

            Population analysis using the SCF Density.

 **********************************************************************

 Orbital symmetries:
       Occupied  (A) (A) (A) (A) (A) (A) (A) (A) (A) (A) (A) (A)
                 (A) (A) (A) (A) (A) (A) (A) (A) (A) (A) (A) (A)
                 (A) (A) (A) (A) (A) (A) (A) (A) (A) (A) (A) (A)
                 (A) (A) (A) (A) (A) (A) (A) (A) (A) (A) (A) (A)
                 (A) (A) (A) (A) (A) (A) (A) (A) (A) (A) (A) (A)
                 (A) (A) (A) (A) (A) (A) (A) (A) (A) (A) (A) (A)
                 (A) (A) (A) (A) (A) (A) (A) (A) (A) (A) (A) (A)
                 (A) (A) (A) (A) (A) (A) (A) (A) (A) (A) (A) (A)
                 (A) (A) (A) (A) (A) (A) (A)
       Virtual   (A) (A) (A) (A) (A) (A) (A) (A) (A) (A) (A) (A)
                 (A) (A) (A) (A) (A) (A) (A) (A) (A) (A) (A) (A)
                 (A) (A) (A) (A) (A) (A) (A) (A) (A) (A) (A) (A)
                 (A) (A) (A) (A) (A) (A) (A) (A) (A) (A) (A) (A)
                 (A) (A) (A) (A) (A) (A) (A) (A) (A) (A) (A) (A)
                 (A) (A) (A) (A) (A) (A) (A) (A) (A) (A) (A) (A)
                 (A) (A) (A) (A) (A) (A) (A) (A) (A) (A) (A) (A)
                 (A) (A) (A) (A) (A) (A) (A) (A) (A) (A) (A) (A)
                 (A) (A) (A) (A) (A) (A) (A) (A) (A) (A) (A) (A)
                 (A) (A) (A) (A) (A) (A) (A) (A) (A) (A) (A) (A)
                 (A) (A) (A) (A) (A) (A) (A) (A) (A) (A) (A) (A)
                 (A) (A) (A) (A) (A) (A) (A) (A) (A) (A) (A) (A)
                 (A) (A) (A) (A) (A) (A) (A) (A) (A) (A) (A) (A)
                 (A) (A) (A) (A) (A) (A) (A) (A) (A) (A) (A) (A)
                 (A) (A) (A) (A) (A) (A) (A) (A) (A) (A) (A) (A)
                 (A) (A) (A) (A) (A) (A) (A) (A) (A) (A) (A) (A)
                 (A) (A) (A) (A) (A) (A) (A) (A) (A) (A) (A) (A)
                 (A) (A) (A) (A) (A) (A) (A) (A) (A) (A) (A) (A)
                 (A) (A) (A) (A) (A) (A) (A) (A) (A) (A) (A) (A)
                 (A) (A) (A) (A) (A) (A) (A) (A) (A) (A) (A) (A)
                 (A) (A) (A) (A) (A) (A) (A) (A) (A) (A) (A) (A)
                 (A) (A) (A) (A) (A) (A) (A) (A) (A) (A) (A) (A)
                 (A) (A) (A) (A) (A) (A) (A) (A) (A) (A) (A) (A)
                 (A) (A) (A) (A) (A) (A) (A) (A) (A) (A) (A) (A)
                 (A) (A) (A) (A) (A) (A) (A) (A) (A) (A) (A) (A)
                 (A) (A) (A) (A) (A) (A) (A) (A) (A) (A) (A) (A)
                 (A) (A) (A) (A) (A) (A) (A) (A) (A) (A) (A) (A)
                 (A) (A) (A) (A) (A) (A) (A) (A) (A) (A) (A) (A)
                 (A) (A) (A) (A) (A) (A) (A) (A) (A) (A) (A) (A)
                 (A) (A) (A) (A) (A) (A) (A) (A) (A) (A) (A) (A)
                 (A) (A) (A) (A) (A) (A) (A) (A) (A) (A) (A) (A)
                 (A) (A) (A) (A) (A) (A) (A) (A) (A) (A) (A) (A)
                 (A) (A) (A) (A) (A) (A) (A) (A) (A) (A) (A) (A)
                 (A) (A) (A) (A) (A) (A) (A) (A) (A) (A) (A) (A)
                 (A) (A) (A) (A) (A) (A) (A) (A) (A) (A) (A) (A)
                 (A) (A) (A) (A) (A) (A) (A) (A) (A) (A) (A) (A)
                 (A) (A) (A) (A) (A) (A) (A) (A) (A) (A) (A) (A)
                 (A) (A) (A) (A) (A) (A) (A) (A) (A) (A) (A) (A)
                 (A) (A) (A) (A) (A) (A) (A) (A) (A) (A) (A) (A)
                 (A) (A) (A) (A) (A) (A) (A) (A) (A) (A) (A) (A)
                 (A) (A) (A) (A) (A) (A) (A) (A) (A) (A) (A) (A)
                 (A) (A) (A) (A) (A) (A) (A) (A) (A) (A) (A) (A)
                 (A) (A) (A) (A) (A) (A) (A) (A) (A) (A) (A) (A)
                 (A) (A) (A) (A) (A) (A) (A) (A) (A) (A) (A) (A)
                 (A) (A) (A) (A) (A) (A) (A) (A) (A) (A) (A) (A)
                 (A) (A) (A) (A) (A) (A) (A) (A) (A) (A) (A) (A)
                 (A) (A) (A) (A) (A) (A) (A) (A) (A) (A) (A) (A)
                 (A) (A) (A) (A) (A) (A) (A) (A) (A) (A) (A) (A)
                 (A) (A) (A) (A) (A) (A) (A) (A) (A) (A) (A) (A)
                 (A) (A) (A) (A) (A) (A) (A) (A)
 The electronic state is 1-A.
 Alpha  occ. eigenvalues -- -481.05600 -61.74804 -55.65931 -55.65929 -55.65920
 Alpha  occ. eigenvalues --  -14.14189  -9.96238  -9.95054  -9.95006  -9.94992
 Alpha  occ. eigenvalues --   -9.91563  -9.91264  -9.91241  -9.91221  -9.90498
 Alpha  occ. eigenvalues --   -9.90238  -9.90204  -9.90201  -9.89904  -9.89715
 Alpha  occ. eigenvalues --   -9.89710  -9.89552  -9.89026  -9.88833  -9.88820
 Alpha  occ. eigenvalues --   -9.88796  -8.32166  -6.19204  -6.19199  -6.19179
 Alpha  occ. eigenvalues --   -2.39678  -2.39678  -2.39666  -2.39662  -2.39659
 Alpha  occ. eigenvalues --   -0.94444  -0.74885  -0.74828  -0.74564  -0.73574
 Alpha  occ. eigenvalues --   -0.70126  -0.69952  -0.69718  -0.67398  -0.63870
 Alpha  occ. eigenvalues --   -0.63547  -0.63163  -0.61089  -0.59651  -0.57616
 Alpha  occ. eigenvalues --   -0.56873  -0.56502  -0.53588  -0.52019  -0.51742
 Alpha  occ. eigenvalues --   -0.51262  -0.51133  -0.48220  -0.47858  -0.47388
 Alpha  occ. eigenvalues --   -0.44215  -0.43030  -0.42441  -0.42105  -0.40788
 Alpha  occ. eigenvalues --   -0.40627  -0.40306  -0.40275  -0.39424  -0.39177
 Alpha  occ. eigenvalues --   -0.38640  -0.37979  -0.36999  -0.36447  -0.36093
 Alpha  occ. eigenvalues --   -0.35630  -0.35135  -0.34871  -0.34436  -0.34003
 Alpha  occ. eigenvalues --   -0.33496  -0.33442  -0.33134  -0.32746  -0.32222
 Alpha  occ. eigenvalues --   -0.32007  -0.31267  -0.31086  -0.29764  -0.29705
 Alpha  occ. eigenvalues --   -0.29517  -0.29428  -0.29289  -0.29132  -0.29082
 Alpha  occ. eigenvalues --   -0.28874  -0.28527  -0.28374  -0.28122  -0.28039
 Alpha  occ. eigenvalues --   -0.20432  -0.20424  -0.20002
 Alpha virt. eigenvalues --   -0.00087   0.00804   0.01125   0.01576   0.02515
 Alpha virt. eigenvalues --    0.02923   0.02993   0.03495   0.03811   0.04038
 Alpha virt. eigenvalues --    0.04452   0.04891   0.05501   0.05557   0.06049
 Alpha virt. eigenvalues --    0.06195   0.06640   0.06778   0.07318   0.07463
 Alpha virt. eigenvalues --    0.07832   0.07931   0.08317   0.08435   0.08560
 Alpha virt. eigenvalues --    0.08679   0.09088   0.09467   0.09550   0.09710
 Alpha virt. eigenvalues --    0.10271   0.10517   0.10930   0.11104   0.11388
 Alpha virt. eigenvalues --    0.11587   0.11923   0.12212   0.12481   0.13104
 Alpha virt. eigenvalues --    0.13195   0.13289   0.13639   0.13808   0.14352
 Alpha virt. eigenvalues --    0.14623   0.15027   0.15085   0.15208   0.15628
 Alpha virt. eigenvalues --    0.15999   0.16533   0.16886   0.17022   0.17636
 Alpha virt. eigenvalues --    0.17876   0.18256   0.18566   0.18827   0.19359
 Alpha virt. eigenvalues --    0.19526   0.19835   0.19940   0.20386   0.20552
 Alpha virt. eigenvalues --    0.20959   0.21066   0.21500   0.21732   0.22364
 Alpha virt. eigenvalues --    0.22468   0.22916   0.23479   0.23590   0.23998
 Alpha virt. eigenvalues --    0.24642   0.24925   0.25292   0.26082   0.26337
 Alpha virt. eigenvalues --    0.26640   0.26721   0.27717   0.27755   0.28446
 Alpha virt. eigenvalues --    0.28762   0.28930   0.29884   0.30089   0.31866
 Alpha virt. eigenvalues --    0.32521   0.32696   0.33412   0.33568   0.33962
 Alpha virt. eigenvalues --    0.34444   0.34967   0.35122   0.35335   0.35968
 Alpha virt. eigenvalues --    0.36261   0.36632   0.37022   0.37227   0.37400
 Alpha virt. eigenvalues --    0.37831   0.38056   0.38267   0.38420   0.38782
 Alpha virt. eigenvalues --    0.38891   0.39040   0.39365   0.39670   0.39786
 Alpha virt. eigenvalues --    0.40258   0.40422   0.40581   0.40991   0.41436
 Alpha virt. eigenvalues --    0.41615   0.41671   0.41842   0.42286   0.42349
 Alpha virt. eigenvalues --    0.42735   0.42945   0.43166   0.43198   0.43340
 Alpha virt. eigenvalues --    0.43853   0.44010   0.44121   0.44419   0.44647
 Alpha virt. eigenvalues --    0.44890   0.44926   0.45098   0.45551   0.45727
 Alpha virt. eigenvalues --    0.45943   0.46319   0.46508   0.47150   0.47473
 Alpha virt. eigenvalues --    0.47829   0.47945   0.48163   0.48682   0.48857
 Alpha virt. eigenvalues --    0.49034   0.49442   0.49882   0.50052   0.51133
[...]
                 (A) (A) (A) (A) (A) (A) (A) (A) (A) (A) (A) (A)
                 (A) (A) (A) (A) (A) (A) (A) (A) (A) (A) (A) (A)
                 (A) (A) (A) (A) (A) (A) (A) (A) (A) (A) (A) (A)
                 (A) (A) (A) (A) (A) (A) (A) (A) (A) (A) (A) (A)
                 (A) (A) (A) (A) (A) (A) (A) (A) (A) (A) (A) (A)
                 (A) (A) (A) (A) (A) (A) (A) (A) (A) (A) (A) (A)
                 (A) (A) (A) (A) (A) (A) (A) (A) (A) (A) (A) (A)
                 (A) (A) (A) (A) (A) (A) (A) (A) (A) (A) (A) (A)
                 (A) (A) (A) (A) (A) (A) (A) (A) (A) (A) (A) (A)
                 (A) (A) (A) (A) (A) (A) (A) (A) (A) (A) (A) (A)
                 (A) (A) (A) (A) (A) (A) (A) (A) (A) (A) (A) (A)
                 (A) (A) (A) (A) (A) (A) (A) (A) (A) (A) (A) (A)
                 (A) (A) (A) (A) (A) (A) (A) (A) (A) (A) (A) (A)
                 (A) (A) (A) (A) (A) (A) (A) (A) (A) (A) (A) (A)
                 (A) (A) (A) (A) (A) (A) (A) (A) (A) (A) (A) (A)
                 (A) (A) (A) (A) (A) (A) (A) (A) (A) (A) (A) (A)
                 (A) (A) (A) (A) (A) (A) (A) (A) (A) (A) (A) (A)
                 (A) (A) (A) (A) (A) (A) (A) (A) (A) (A) (A) (A)
                 (A) (A) (A) (A) (A) (A) (A) (A) (A) (A) (A) (A)
                 (A) (A) (A) (A) (A) (A) (A) (A) (A) (A) (A) (A)
                 (A) (A) (A) (A) (A) (A) (A) (A)
 The electronic state is 1-A.
 Alpha  occ. eigenvalues -- -481.06325 -61.75526 -55.66650 -55.66649 -55.66649
 Alpha  occ. eigenvalues --  -14.11985  -9.94502  -9.94196  -9.94106  -9.94040
 Alpha  occ. eigenvalues --   -9.90246  -9.90180  -9.90106  -9.90042  -9.89526
 Alpha  occ. eigenvalues --   -9.89458  -9.89419  -9.89398  -9.89102  -9.89102
 Alpha  occ. eigenvalues --   -9.89078  -9.89075  -9.88173  -9.88121  -9.88112
 Alpha  occ. eigenvalues --   -9.88077  -8.32884  -6.19913  -6.19912  -6.19911
 Alpha  occ. eigenvalues --   -2.40386  -2.40386  -2.40385  -2.40385  -2.40385
 Alpha  occ. eigenvalues --   -0.91970  -0.74231  -0.74151  -0.73933  -0.72859
 Alpha  occ. eigenvalues --   -0.69317  -0.69072  -0.68875  -0.66702  -0.63158
 Alpha  occ. eigenvalues --   -0.62833  -0.62359  -0.61684  -0.59351  -0.57334
 Alpha  occ. eigenvalues --   -0.56511  -0.56236  -0.52952  -0.51486  -0.51260
 Alpha  occ. eigenvalues --   -0.50824  -0.50151  -0.46938  -0.46489  -0.45485
 Alpha  occ. eigenvalues --   -0.43176  -0.42578  -0.41944  -0.41544  -0.40252
 Alpha  occ. eigenvalues --   -0.39798  -0.39754  -0.39198  -0.39026  -0.38684
 Alpha  occ. eigenvalues --   -0.37534  -0.36765  -0.36513  -0.36021  -0.35342
 Alpha  occ. eigenvalues --   -0.35152  -0.34985  -0.34523  -0.33865  -0.33570
 Alpha  occ. eigenvalues --   -0.33121  -0.33082  -0.32749  -0.32072  -0.31559
 Alpha  occ. eigenvalues --   -0.31428  -0.30523  -0.30465  -0.29109  -0.29070
 Alpha  occ. eigenvalues --   -0.28997  -0.28712  -0.28607  -0.28470  -0.28357
 Alpha  occ. eigenvalues --   -0.28315  -0.28185  -0.27939  -0.27868  -0.27635
 Alpha  occ. eigenvalues --   -0.21203  -0.21177  -0.20910
 Alpha virt. eigenvalues --    0.00789   0.01904   0.02121   0.02323   0.03047
 Alpha virt. eigenvalues --    0.03744   0.03955   0.04129   0.04484   0.04760
 Alpha virt. eigenvalues --    0.05257   0.05708   0.06442   0.06673   0.07108
 Alpha virt. eigenvalues --    0.07225   0.07653   0.07740   0.07980   0.08241
 Alpha virt. eigenvalues --    0.08656   0.08866   0.09207   0.09293   0.09357
 Alpha virt. eigenvalues --    0.09742   0.09858   0.09982   0.10226   0.10715
 Alpha virt. eigenvalues --    0.10905   0.11264   0.11336   0.11788   0.12143
 Alpha virt. eigenvalues --    0.12345   0.12818   0.13193   0.13391   0.13634
 Alpha virt. eigenvalues --    0.13748   0.13974   0.14191   0.14382   0.15101
 Alpha virt. eigenvalues --    0.15336   0.15593   0.15790   0.16122   0.16508
 Alpha virt. eigenvalues --    0.16809   0.17341   0.17639   0.18049   0.18455
 Alpha virt. eigenvalues --    0.18521   0.18680   0.19228   0.19333   0.19891
 Alpha virt. eigenvalues --    0.20181   0.20580   0.20638   0.20925   0.21254
 Alpha virt. eigenvalues --    0.21557   0.21842   0.22234   0.22294   0.22649
 Alpha virt. eigenvalues --    0.22889   0.23404   0.23775   0.23896   0.24065
 Alpha virt. eigenvalues --    0.24544   0.25234   0.25530   0.26124   0.26692
 Alpha virt. eigenvalues --    0.26936   0.27434   0.28260   0.28484   0.29143
 Alpha virt. eigenvalues --    0.29233   0.30270   0.30562   0.31226   0.31978
 Alpha virt. eigenvalues --    0.32862   0.33758   0.33921   0.34511   0.35050
 Alpha virt. eigenvalues --    0.35376   0.35646   0.35998   0.36577   0.36626
 Alpha virt. eigenvalues --    0.37089   0.37710   0.37779   0.38077   0.38320
 Alpha virt. eigenvalues --    0.38603   0.38777   0.39159   0.39312   0.39475
 Alpha virt. eigenvalues --    0.39729   0.39928   0.40469   0.40631   0.40708
 Alpha virt. eigenvalues --    0.41281   0.41551   0.41879   0.41920   0.42145
 Alpha virt. eigenvalues --    0.42336   0.42600   0.42682   0.42888   0.43209
 Alpha virt. eigenvalues --    0.43510   0.43587   0.43830   0.43958   0.44112
 Alpha virt. eigenvalues --    0.44232   0.44578   0.44828   0.44990   0.45369
 Alpha virt. eigenvalues --    0.45737   0.45872   0.46113   0.46249   0.46517
 Alpha virt. eigenvalues --    0.46818   0.47015   0.47260   0.47687   0.48123
 Alpha virt. eigenvalues --    0.48357   0.48455   0.48766   0.48968   0.49363
 Alpha virt. eigenvalues --    0.50206   0.50569   0.50911   0.51108   0.51432
 Alpha virt. eigenvalues --    0.52347   0.52897   0.53576   0.53959   0.54040
 Alpha virt. eigenvalues --    0.54319   0.54846   0.55269   0.55628   0.56156
 Alpha virt. eigenvalues --    0.56856   0.57329   0.58307   0.58704   0.58984
 Alpha virt. eigenvalues --    0.59562   0.60806   0.61200   0.61546   0.62166
 Alpha virt. eigenvalues --    0.63203   0.64367   0.64773   0.65567   0.66040
 Alpha virt. eigenvalues --    0.66692   0.67264   0.68054   0.68422   0.69021
 Alpha virt. eigenvalues --    0.69357   0.69752   0.71231   0.71581   0.72700
 Alpha virt. eigenvalues --    0.73467   0.74427   0.75118   0.77003   0.78693
 Alpha virt. eigenvalues --    0.79369   0.81064   0.82195   0.82901   0.87458
 Alpha virt. eigenvalues --    0.93108   1.06674   1.07455   1.09241   1.09558
 Alpha virt. eigenvalues --    1.10355   1.10834   1.11383   1.12421   1.13586
 Alpha virt. eigenvalues --    1.14165   1.16357   1.17303   1.17517   1.18922
 Alpha virt. eigenvalues --    1.20105   1.20628   1.21353   1.21876   1.22110
 Alpha virt. eigenvalues --    1.22442   1.22700   1.23019   1.23040   1.23510
 Alpha virt. eigenvalues --    1.23709   1.24279   1.24412   1.24864   1.25231
 Alpha virt. eigenvalues --    1.25461   1.25968   1.26311   1.26560   1.26807
 Alpha virt. eigenvalues --    1.27153   1.27605   1.28160   1.28818   1.28977
 Alpha virt. eigenvalues --    1.29359   1.30207   1.30474   1.30817   1.31118
 Alpha virt. eigenvalues --    1.31656   1.31874   1.32233   1.32866   1.32956
 Alpha virt. eigenvalues --    1.33108   1.33537   1.33711   1.34329   1.34723
 Alpha virt. eigenvalues --    1.35013   1.35946   1.36194   1.36317   1.36713
 Alpha virt. eigenvalues --    1.37696   1.38147   1.38526   1.38887   1.39452
 Alpha virt. eigenvalues --    1.40259   1.41006   1.41744   1.42934   1.43050
 Alpha virt. eigenvalues --    1.43690   1.44018   1.44436   1.45110   1.45872
 Alpha virt. eigenvalues --    1.46392   1.47174   1.47388   1.48106   1.48683
 Alpha virt. eigenvalues --    1.49166   1.49983   1.50976   1.51491   1.52197
 Alpha virt. eigenvalues --    1.53342   1.53734   1.54203   1.54930   1.55486
 Alpha virt. eigenvalues --    1.55670   1.56120   1.56703   1.57030   1.57537
 Alpha virt. eigenvalues --    1.57791   1.58428   1.59084   1.59530   1.60270
 Alpha virt. eigenvalues --    1.60802   1.61284   1.61837   1.61960   1.62244
 Alpha virt. eigenvalues --    1.62552   1.62876   1.63179   1.63495   1.64135
 Alpha virt. eigenvalues --    1.64215   1.64683   1.65112   1.65848   1.66260
 Alpha virt. eigenvalues --    1.66442   1.67182   1.67794   1.68041   1.68389
 Alpha virt. eigenvalues --    1.69073   1.69795   1.70125   1.70629   1.71043
 Alpha virt. eigenvalues --    1.71389   1.71680   1.72226   1.72289   1.72717
 Alpha virt. eigenvalues --    1.73407   1.73482   1.73966   1.74102   1.74414
 Alpha virt. eigenvalues --    1.74685   1.74825   1.75522   1.75798   1.76047
 Alpha virt. eigenvalues --    1.76355   1.76680   1.76695   1.77340   1.77709
 Alpha virt. eigenvalues --    1.78162   1.78555   1.79069   1.79389   1.79775
 Alpha virt. eigenvalues --    1.80490   1.80898   1.81079   1.81466   1.81863
 Alpha virt. eigenvalues --    1.82287   1.82850   1.83528   1.83669   1.84364
 Alpha virt. eigenvalues --    1.84760   1.84980   1.85294   1.85541   1.86610
 Alpha virt. eigenvalues --    1.86809   1.87368   1.87927   1.88653   1.88931
 Alpha virt. eigenvalues --    1.89504   1.90361   1.90861   1.91351   1.92895
 Alpha virt. eigenvalues --    1.93405   1.93799   1.94189   1.94818   1.95367
 Alpha virt. eigenvalues --    1.96112   1.96858   1.97459   1.99058   1.99356
 Alpha virt. eigenvalues --    2.00583   2.01447   2.02312   2.03401   2.04591
 Alpha virt. eigenvalues --    2.05424   2.06481   2.08383   2.09436   2.10005
 Alpha virt. eigenvalues --    2.11842   2.12661   2.13042   2.13558   2.15577
 Alpha virt. eigenvalues --    2.16517   2.17150   2.17553   2.17773   2.18944
 Alpha virt. eigenvalues --    2.19456   2.20207   2.20863   2.21749   2.22118
 Alpha virt. eigenvalues --    2.22763   2.23875   2.24626   2.25369   2.25677
 Alpha virt. eigenvalues --    2.26106   2.26332   2.27802   2.28516   2.29695
 Alpha virt. eigenvalues --    2.31168   2.31734   2.32126   2.32983   2.33577
 Alpha virt. eigenvalues --    2.33692   2.33988   2.34227   2.34811   2.35234
 Alpha virt. eigenvalues --    2.35615   2.36588   2.37299   2.38425   2.39166
 Alpha virt. eigenvalues --    2.40070   2.41334   2.41812   2.42417   2.43047
 Alpha virt. eigenvalues --    2.43637   2.44361   2.45349   2.45994   2.46836
 Alpha virt. eigenvalues --    2.47644   2.48106   2.48491   2.49820   2.50226
 Alpha virt. eigenvalues --    2.50743   2.51449   2.51707   2.52057   2.52293
 Alpha virt. eigenvalues --    2.52834   2.52905   2.53631   2.53814   2.54756
 Alpha virt. eigenvalues --    2.55366   2.55724   2.56746   2.56854   2.57291
 Alpha virt. eigenvalues --    2.58227   2.59123   2.59261   2.60147   2.60796
 Alpha virt. eigenvalues --    2.61048   2.61305   2.61603   2.62366   2.62539
 Alpha virt. eigenvalues --    2.62750   2.63323   2.64166   2.64542   2.64964
 Alpha virt. eigenvalues --    2.65675   2.65907   2.66505   2.67015   2.68020
 Alpha virt. eigenvalues --    2.68814   2.69015   2.69977   2.71066   2.71838
 Alpha virt. eigenvalues --    2.72316   2.73632   2.74095   2.74886   2.75169
 Alpha virt. eigenvalues --    2.75415   2.76766   2.78103   2.78512   2.78977
 Alpha virt. eigenvalues --    2.79437   2.80765   2.82274   2.83546   2.85548
 Alpha virt. eigenvalues --    2.86539   2.87307   2.87704   2.89328   2.90246
 Alpha virt. eigenvalues --    2.92785   2.93262   2.94200   2.95084   2.97811
 Alpha virt. eigenvalues --    2.98514   3.01044   3.02855   3.05614   3.06321
 Alpha virt. eigenvalues --    3.07078   3.08021   3.09769   3.11141   3.11460
 Alpha virt. eigenvalues --    3.14137   3.14455   3.18309   3.18886   3.19834
 Alpha virt. eigenvalues --    3.20471   3.22885   3.24056   3.24372   3.24478
 Alpha virt. eigenvalues --    3.24941   3.25670   3.25889   3.26765   3.27280
 Alpha virt. eigenvalues --    3.28536   3.28653   3.28910   3.29419   3.29971
 Alpha virt. eigenvalues --    3.30653   3.31133   3.31849   3.32555   3.33069
 Alpha virt. eigenvalues --    3.33252   3.34255   3.34674   3.34965   3.35538
 Alpha virt. eigenvalues --    3.36128   3.36199   3.37270   3.37620   3.37828
 Alpha virt. eigenvalues --    3.38786   3.39737   3.39978   3.40301   3.41279
 Alpha virt. eigenvalues --    3.42109   3.42368   3.42926   3.43866   3.45506
 Alpha virt. eigenvalues --    3.46631   3.65855   3.66677   3.67425   7.19313
 Alpha virt. eigenvalues --   21.75624  21.76378  21.77874  21.78015  21.80755
 Alpha virt. eigenvalues --   21.81454  21.82663  21.83877  21.84142  21.84504
 Alpha virt. eigenvalues --   21.86257  21.86420  21.88258  21.90088  21.92571
 Alpha virt. eigenvalues --   21.94877  21.95542  21.99394  22.01203  22.05975
 Alpha virt. eigenvalues --   31.90741
          Condensed to atoms (all electrons):
 Mulliken charges:
               1
     1  C   -0.442993
     2  C   -0.251884
     3  C   -0.281243
     4  C   -0.277701
     5  C   -0.274875
     6  N   -0.104302
     7  C   -0.221272
     8  C   -0.246375
     9  C   -0.303963
    10  C   -0.213741
    11  C   -0.467182
    12  C   -0.324333
    13  C   -0.309764
    14  C   -0.288844
    15  C   -0.269935
    16  C   -0.449926
    17  C   -0.283699
    18  C   -0.319035
    19  C   -0.293605
    20  C   -0.221153
    21  C   -0.455460
    22  Br  -0.913132
    23  H    0.139118
    24  H    0.140032
    25  H    0.146617
    26  H    0.128340
    27  H    0.148328
    28  H    0.161372
    29  H    0.146724
    30  H    0.172203
    31  H    0.185292
    32  H    0.183246
    33  H    0.238067
    34  H    0.220917
    35  H    0.177236
    36  H    0.180444
    37  H    0.100049
    38  H    0.148660
    39  H    0.144200
    40  H    0.146303
    41  H    0.131896
    42  H    0.149673
    43  H    0.136600
    44  H    0.154947
    45  H    0.232442
    46  H    0.217737
    47  H    0.191565
    48  H    0.213181
    49  H    0.160127
    50  H    0.152879
    51  H    0.150957
    52  H    0.151845
    53  H    0.154866
    54  H    0.149644
    55  H    0.141320
    56  H    0.240981
    57  H    0.183815
    58  H    0.201956
    59  H    0.181265
    60  H    0.145645
    61  H    0.154603
    62  H    0.133827
    63  H    0.145456
    64  H    0.148164
    65  H    0.147733
    66  H    0.134144
 Sum of Mulliken charges =  -0.00000
 Mulliken charges with hydrogens summed into heavy atoms:
               1
     1  C   -0.017226
     2  C    0.024784
     3  C    0.026853
     4  C    0.079794
     5  C    0.146438
     6  N   -0.104302
     7  C    0.176880
     8  C    0.034119
     9  C   -0.011103
    10  C    0.064458
    11  C   -0.025962
    12  C    0.125846
    13  C    0.094982
    14  C    0.024162
    15  C    0.032867
    16  C   -0.004097
    17  C    0.141097
    18  C    0.064187
    19  C    0.006644
    20  C    0.058130
    21  C   -0.025419
    22  Br  -0.913132
 Electronic spatial extent (au):  <R**2>=          11785.3704
 Charge=              0.0000 electrons
 Dipole moment (field-independent basis, Debye):
    X=            -13.6088    Y=             11.0080    Z=              7.7623  Tot=             19.1476
 Quadrupole moment (field-independent basis, Debye-Ang):
   XX=           -185.1577   YY=           -173.6224   ZZ=           -158.9440
   XY=             26.9932   XZ=             16.5997   YZ=            -13.7148
 Traceless Quadrupole moment (field-independent basis, Debye-Ang):
   XX=            -12.5830   YY=             -1.0477   ZZ=             13.6307
   XY=             26.9932   XZ=             16.5997   YZ=            -13.7148
 Octapole moment (field-independent basis, Debye-Ang**2):
  XXX=            -54.2216  YYY=             10.7880  ZZZ=              3.2243  XYY=            -52.8984
  XXY=             66.1954  XXZ=             46.1219  XZZ=             -1.3210  YZZ=              7.1099
  YYZ=             18.2064  XYZ=            -41.8251
 Hexadecapole moment (field-independent basis, Debye-Ang**3):
 XXXX=          -7786.4460 YYYY=          -5157.8121 ZZZZ=          -3173.8924 XXXY=             42.9671
 XXXZ=             52.4251 YYYX=             34.5225 YYYZ=            -15.4673 ZZZX=            -24.2632
 ZZZY=             11.1581 XXYY=          -2217.3664 XXZZ=          -1811.3777 YYZZ=          -1394.2912
 XXYZ=            -70.6641 YYXZ=             48.7490 ZZXY=              9.0483
 N-N= 2.492511886969D+03 E-N=-1.308902352224D+04  KE= 3.408830400391D+03
 Unable to Open any file for archive entry.
 1\1\GINC-TCN982\SP\RBP86\TZVP\C20H44Br1N1\ELENAA\21-Aug-2021\0\\# BP86
 /TZVP SCRF=COSMORS geom=CHECKPOINT guess=CHECKPOINT\\COSMO-file for #S
 PALIFXDWQTXKS-UHFFFAOYSA-M\\0,1\C,0,5.4404805203,-0.9722286943,0.66416
 57515\C,0,5.2549269374,0.0687705108,1.7791825704\C,0,4.4725894652,1.33
 74794609,1.3737101217\C,0,2.9378447684,1.25749392,1.5129137904\C,0,2.3
 421129078,0.1893342742,0.6002308576\N,0,0.811504977,0.2083643588,0.450
 453949\C,0,0.2165133413,0.0827504826,1.8584249681\C,0,-1.2967307194,-0
 .0572836322,1.9592570513\C,0,-1.7101408288,-0.1581987051,3.4374734787\
 C,0,-3.2269726558,-0.3238667969,3.6306387106\C,0,-4.0526830582,0.86461
 84165,3.1182372392\C,0,0.3911328016,1.5214445366,-0.227561367\C,0,-0.9
 093016623,1.5126921328,-1.0309130802\C,0,-1.212179367,2.9182642631,-1.
 5904256786\C,0,-1.4222686697,4.0248537184,-0.5400677952\C,0,-2.5078871
 077,3.7056101244,0.495776351\C,0,0.4142547668,-1.0234663838,-0.3617181
 216\C,0,1.113019963,-1.1691427079,-1.7112625478\C,0,0.3930607982,-2.23
 32371695,-2.5566646744\C,0,1.1096583163,-2.5531467683,-3.8786331541\C,
 0,1.2021859083,-1.3592595073,-4.8385753845\Br,0,2.163703048,-3.2298699
 502,2.2248466669\H,0,4.4915013452,-1.4349366192,0.3569253356\H,0,5.896
 0625565,-0.5123796314,-0.2275135038\H,0,6.1019914432,-1.7870899433,0.9
 966324867\H,0,4.7621685194,-0.4002420014,2.6494233565\H,0,6.2535282104
 ,0.3792733513,2.1284659014\H,0,4.8015113522,2.1768500845,2.0070178976\
 H,0,4.7335342546,1.6164724459,0.3371735144\H,0,2.6936848581,1.04231267
 13,2.5644159208\H,0,2.5186936813,2.2480849608,1.2762555675\H,0,2.57438
 10793,-0.8201790403,0.9704453953\H,0,2.7428191153,0.2999889835,-0.4147
 567999\H,0,0.5381033644,0.980808095,2.400309231\H,0,0.7178435424,-0.79
 35679854,2.2997706395\H,0,-1.6532278554,-0.9516821284,1.4258481931\H,0
 ,-1.7901723793,0.8137134342,1.5084045746\H,0,-1.1860569537,-1.01106091
 44,3.9015516988\H,0,-1.3723326897,0.7477181294,3.9719236547\H,0,-3.425
 9281721,-0.4686516339,4.7055059706\H,0,-3.5574037802,-1.2500537087,3.1
 284987874\H,0,-5.1179069379,0.744019484,3.3669580575\H,0,-3.7056431812
 ,1.8086177006,3.5691828381\H,0,-3.9826369451,0.9738672733,2.0250201412
 \H,0,0.3450964551,2.2624817132,0.5792832171\H,0,1.2213235528,1.8053381
 212,-0.8883142814\H,0,-0.8294698617,0.8173003076,-1.8789861984\H,0,-1.
 7558607264,1.169121431,-0.421776008\H,0,-2.1231676312,2.8345516438,-2.
 2062752036\H,0,-0.4008867944,3.2161448464,-2.2765696517\H,0,-0.4729538
 337,4.2475644661,-0.0235654647\H,0,-1.6895085582,4.9507643812,-1.07566
 42736\H,0,-2.2117000295,2.8803852708,1.1620295456\H,0,-2.7140918724,4.
 5761082456,1.1361726739\H,0,-3.4510652269,3.4131534552,0.0068382258\H,
 0,-0.6715153384,-0.9696840246,-0.4975689977\H,0,0.6415567499,-1.883857
 3036,0.2868461325\H,0,1.1266604526,-0.2099650639,-2.2518311035\H,0,2.1
 617189258,-1.4737582397,-1.570696746\H,0,-0.6355132659,-1.8913423192,-
 2.7710814767\H,0,0.2975799184,-3.1578692482,-1.9617478638\H,0,2.122812
 8462,-2.9329133955,-3.6583632927\H,0,0.5726173157,-3.3787948994,-4.374
 5111811\H,0,1.6417041086,-1.6578920875,-5.8023241271\H,0,1.8281137072,
 -0.5516353889,-4.4290059495\H,0,0.2034022283,-0.9383638029,-5.03929653
 7\\Version=ES64L-G16RevC.01\State=1-A\HF=-3418.093847\RMSD=3.755e-09\D
 ipole=-2.5408067,6.2990279,-3.2582276\Quadrupole=9.1118559,-15.0665818
 ,5.9547259,14.6261844,-7.7547017,17.5398566\PG=C01 [X(C20H44Br1N1)]\\@
 The archive entry for this job was punched.


 IF THE FACTS DO NOT CONFORM TO THE THEORY, THEY MUST BE DISPOSED OF.
 Job cpu time:       0 days  0 hours 50 minutes 40.3 seconds.
 Elapsed time:       0 days  0 hours  2 minutes  8.9 seconds.
 File lengths (MBytes):  RWF=    370 Int=      0 D2E=      0 Chk=     45 Scr=      1
 Normal termination of Gaussian 16 at Sat Aug 21 11:30:00 2021.
