 Entering Gaussian System, Link 0=g16
 Input=SRBFZHDQGSBBOR-SKNVOMKLSA-N.gjf
 Output=SRBFZHDQGSBBOR-SKNVOMKLSA-N.log
 Initial command:
 /sw/arch/RedHatEnterpriseServer7/EB_production/2019/software/Gaussian/g16.c01/l1.exe "/scratch-local/elenaa.9715274/Gau-14862.inp" -scrdir="/scratch-local/elenaa.9715274/"
 Entering Link 1 = /sw/arch/RedHatEnterpriseServer7/EB_production/2019/software/Gaussian/g16.c01/l1.exe PID=     14863.
  
 Copyright (c) 1988-2019, Gaussian, Inc.  All Rights Reserved.
  
 This is part of the Gaussian(R) 16 program.  It is based on
 the Gaussian(R) 09 system (copyright 2009, Gaussian, Inc.),
 the Gaussian(R) 03 system (copyright 2003, Gaussian, Inc.),
 the Gaussian(R) 98 system (copyright 1998, Gaussian, Inc.),
 the Gaussian(R) 94 system (copyright 1995, Gaussian, Inc.),
 the Gaussian 92(TM) system (copyright 1992, Gaussian, Inc.),
 the Gaussian 90(TM) system (copyright 1990, Gaussian, Inc.),
 the Gaussian 88(TM) system (copyright 1988, Gaussian, Inc.),
 the Gaussian 86(TM) system (copyright 1986, Carnegie Mellon
 University), and the Gaussian 82(TM) system (copyright 1983,
 Carnegie Mellon University). Gaussian is a federally registered
 trademark of Gaussian, Inc.
  
 This software contains proprietary and confidential information,
 including trade secrets, belonging to Gaussian, Inc.
  
 This software is provided under written license and may be
 used, copied, transmitted, or stored only in accord with that
 written license.
  
 The following legend is applicable only to US Government
 contracts under FAR:
  
                    RESTRICTED RIGHTS LEGEND
  
 Use, reproduction and disclosure by the US Government is
 subject to restrictions as set forth in subparagraphs (a)
 and (c) of the Commercial Computer Software - Restricted
 Rights clause in FAR 52.227-19.
  
 Gaussian, Inc.
 340 Quinnipiac St., Bldg. 40, Wallingford CT 06492
  
  
 ---------------------------------------------------------------
 Warning -- This program may not be used in any manner that
 competes with the business of Gaussian, Inc. or will provide
 assistance to any competitor of Gaussian, Inc.  The licensee
 of this program is prohibited from giving any competitor of
 Gaussian, Inc. access to this program.  By using this program,
 the user acknowledges that Gaussian, Inc. is engaged in the
 business of creating and licensing software in the field of
 computational chemistry and represents and warrants to the
 licensee that it is not a competitor of Gaussian, Inc. and that
 it will not use this program in any manner prohibited above.
 ---------------------------------------------------------------
  

 Cite this work as:
 Gaussian 16, Revision C.01,
 M. J. Frisch, G. W. Trucks, H. B. Schlegel, G. E. Scuseria, 
 M. A. Robb, J. R. Cheeseman, G. Scalmani, V. Barone, 
 G. A. Petersson, H. Nakatsuji, X. Li, M. Caricato, A. V. Marenich, 
 J. Bloino, B. G. Janesko, R. Gomperts, B. Mennucci, H. P. Hratchian, 
 J. V. Ortiz, A. F. Izmaylov, J. L. Sonnenberg, D. Williams-Young, 
 F. Ding, F. Lipparini, F. Egidi, J. Goings, B. Peng, A. Petrone, 
 T. Henderson, D. Ranasinghe, V. G. Zakrzewski, J. Gao, N. Rega, 
 G. Zheng, W. Liang, M. Hada, M. Ehara, K. Toyota, R. Fukuda, 
 J. Hasegawa, M. Ishida, T. Nakajima, Y. Honda, O. Kitao, H. Nakai, 
 T. Vreven, K. Throssell, J. A. Montgomery, Jr., J. E. Peralta, 
 F. Ogliaro, M. J. Bearpark, J. J. Heyd, E. N. Brothers, K. N. Kudin, 
 V. N. Staroverov, T. A. Keith, R. Kobayashi, J. Normand, 
 K. Raghavachari, A. P. Rendell, J. C. Burant, S. S. Iyengar, 
 J. Tomasi, M. Cossi, J. M. Millam, M. Klene, C. Adamo, R. Cammi, 
 J. W. Ochterski, R. L. Martin, K. Morokuma, O. Farkas, 
 J. B. Foresman, and D. J. Fox, Gaussian, Inc., Wallingford CT, 2019.
 
 ******************************************
 Gaussian 16:  ES64L-G16RevC.01  3-Jul-2019
                22-Feb-2021 
 ******************************************
 %chk=SRBFZHDQGSBBOR-SKNVOMKLSA-N.chk
 %NProcShared=32
 Will use up to   32 processors via shared memory.
 -------------------------------------------------------------
 #P BP86/TZVP EmpiricalDispersion=GD3 SCRF=(Solvent=Water) Opt
 -------------------------------------------------------------
 1/18=20,19=15,26=3,38=1/1,3;
 2/9=110,12=2,17=6,18=5,40=1/2;
 3/5=19,7=101,11=2,25=1,30=1,70=2201,71=1,72=1,74=404,124=31/1,2,3;
 4//1;
 5/5=2,38=5,53=1/2;
 6/7=2,8=2,9=2,10=2,28=1/1;
 7//1,2,3,16;
 1/18=20,19=15,26=3/3(2);
 2/9=110/2;
 99//99;
 2/9=110/2;
 3/5=19,7=101,11=2,25=1,30=1,70=2205,71=1,72=1,74=404,124=31/1,2,3;
 4/5=5,16=3,69=1/1;
 5/5=2,38=5,53=1/2;
 7//1,2,3,16;
 1/18=20,19=15,26=3/3(-5);
 2/9=110/2;
 6/7=2,8=2,9=2,10=2,19=2,28=1/1;
 99/9=1/99;
 Leave Link    1 at Mon Feb 22 21:19:05 2021, MaxMem=           0 cpu:               1.8 elap:               0.1
 (Enter /sw/arch/RedHatEnterpriseServer7/EB_production/2019/software/Gaussian/g16.c01/l101.exe)
 -------------------------------------
 Particle #SRBFZHDQGSBBOR-SKNVOMKLSA-N
 -------------------------------------
 Symbolic Z-matrix:
 Charge =  0 Multiplicity = 1
 O                    -0.11235   0.92117   3.12616 
 C                    -1.03532   0.22747   2.29276 
 O                    -0.81523  -1.19128   2.45004 
 C                     0.51191  -1.61777   2.06995 
 C                     0.81896  -1.28947   0.58489 
 O                     2.18003  -1.60373   0.29677 
 C                     0.54423   0.212     0.28552 
 O                     0.61331   0.44385  -1.1207 
 C                    -0.84802   0.66308   0.8133 
 O                    -0.96839   2.08178   0.70822 
 H                    -0.29869   0.59997   4.03309 
 H                    -2.04121   0.49135   2.63594 
 H                     1.17829  -1.04122   2.71313 
 H                     0.70773  -2.67399   2.2706 
 H                     0.19189  -1.91187  -0.06101 
 H                     2.26458  -2.56201   0.48573 
 H                     1.32259   0.82382   0.75053 
 H                     1.51455   0.15888  -1.37868 
 H                    -1.63961   0.21892   0.20189 
 H                    -0.84658   2.27657  -0.24526 
 
 ITRead=  0  0  0  0  0  0  0  0  0  0  0  0  0  0  0  0  0  0  0  0
 MicOpt= -1 -1 -1 -1 -1 -1 -1 -1 -1 -1 -1 -1 -1 -1 -1 -1 -1 -1 -1 -1
 NAtoms=     20 NQM=       20 NQMF=       0 NMMI=      0 NMMIF=      0
                NMic=       0 NMicF=      0.
                    Isotopes and Nuclear Properties:
 (Nuclear quadrupole moments (NQMom) in fm**2, nuclear magnetic moments (NMagM)
  in nuclear magnetons)

  Atom         1           2           3           4           5           6           7           8           9          10
 IAtWgt=          16          12          16          12          12          16          12          16          12          16
 AtmWgt=  15.9949146  12.0000000  15.9949146  12.0000000  12.0000000  15.9949146  12.0000000  15.9949146  12.0000000  15.9949146
 NucSpn=           0           0           0           0           0           0           0           0           0           0
 AtZEff=  -0.0000000  -0.0000000  -0.0000000  -0.0000000  -0.0000000  -0.0000000  -0.0000000  -0.0000000  -0.0000000  -0.0000000
 NQMom=    0.0000000   0.0000000   0.0000000   0.0000000   0.0000000   0.0000000   0.0000000   0.0000000   0.0000000   0.0000000
 NMagM=    0.0000000   0.0000000   0.0000000   0.0000000   0.0000000   0.0000000   0.0000000   0.0000000   0.0000000   0.0000000
 AtZNuc=   8.0000000   6.0000000   8.0000000   6.0000000   6.0000000   8.0000000   6.0000000   8.0000000   6.0000000   8.0000000

  Atom        11          12          13          14          15          16          17          18          19          20
 IAtWgt=           1           1           1           1           1           1           1           1           1           1
 AtmWgt=   1.0078250   1.0078250   1.0078250   1.0078250   1.0078250   1.0078250   1.0078250   1.0078250   1.0078250   1.0078250
 NucSpn=           1           1           1           1           1           1           1           1           1           1
 AtZEff=  -0.0000000  -0.0000000  -0.0000000  -0.0000000  -0.0000000  -0.0000000  -0.0000000  -0.0000000  -0.0000000  -0.0000000
 NQMom=    0.0000000   0.0000000   0.0000000   0.0000000   0.0000000   0.0000000   0.0000000   0.0000000   0.0000000   0.0000000
 NMagM=    2.7928460   2.7928460   2.7928460   2.7928460   2.7928460   2.7928460   2.7928460   2.7928460   2.7928460   2.7928460
 AtZNuc=   1.0000000   1.0000000   1.0000000   1.0000000   1.0000000   1.0000000   1.0000000   1.0000000   1.0000000   1.0000000
 Leave Link  101 at Mon Feb 22 21:19:05 2021, MaxMem=   104857600 cpu:               3.0 elap:               0.1
 (Enter /sw/arch/RedHatEnterpriseServer7/EB_production/2019/software/Gaussian/g16.c01/l103.exe)

 GradGradGradGradGradGradGradGradGradGradGradGradGradGradGradGradGradGrad
 Berny optimization.
 Initialization pass.
                           ----------------------------
                           !    Initial Parameters    !
                           ! (Angstroms and Degrees)  !
 --------------------------                            --------------------------
 ! Name  Definition              Value          Derivative Info.                !
 --------------------------------------------------------------------------------
 ! R1    R(1,2)                  1.424          estimate D2E/DX2                !
 ! R2    R(1,11)                 0.98           estimate D2E/DX2                !
 ! R3    R(2,3)                  1.4443         estimate D2E/DX2                !
 ! R4    R(2,9)                  1.5536         estimate D2E/DX2                !
 ! R5    R(2,12)                 1.0951         estimate D2E/DX2                !
 ! R6    R(3,4)                  1.4449         estimate D2E/DX2                !
 ! R7    R(4,5)                  1.5516         estimate D2E/DX2                !
 ! R8    R(4,13)                 1.0909         estimate D2E/DX2                !
 ! R9    R(4,14)                 1.0928         estimate D2E/DX2                !
 ! R10   R(5,6)                  1.4263         estimate D2E/DX2                !
 ! R11   R(5,7)                  1.5555         estimate D2E/DX2                !
 ! R12   R(5,15)                 1.0944         estimate D2E/DX2                !
 ! R13   R(6,16)                 0.9804         estimate D2E/DX2                !
 ! R14   R(7,8)                  1.4269         estimate D2E/DX2                !
 ! R15   R(7,9)                  1.5558         estimate D2E/DX2                !
 ! R16   R(7,17)                 1.0938         estimate D2E/DX2                !
 ! R17   R(8,18)                 0.9798         estimate D2E/DX2                !
 ! R18   R(9,10)                 1.4277         estimate D2E/DX2                !
 ! R19   R(9,19)                 1.0944         estimate D2E/DX2                !
 ! R20   R(10,20)                0.9808         estimate D2E/DX2                !
 ! A1    A(2,1,11)             104.9938         estimate D2E/DX2                !
 ! A2    A(1,2,3)              108.4235         estimate D2E/DX2                !
 ! A3    A(1,2,9)              110.0357         estimate D2E/DX2                !
 ! A4    A(1,2,12)             107.132          estimate D2E/DX2                !
 ! A5    A(3,2,9)              111.1467         estimate D2E/DX2                !
 ! A6    A(3,2,12)             110.0322         estimate D2E/DX2                !
 ! A7    A(9,2,12)             109.9746         estimate D2E/DX2                !
 ! A8    A(2,3,4)              113.6579         estimate D2E/DX2                !
 ! A9    A(3,4,5)              111.7829         estimate D2E/DX2                !
 ! A10   A(3,4,13)             104.4759         estimate D2E/DX2                !
 ! A11   A(3,4,14)             113.6779         estimate D2E/DX2                !
 ! A12   A(5,4,13)             109.3642         estimate D2E/DX2                !
 ! A13   A(5,4,14)             110.1683         estimate D2E/DX2                !
 ! A14   A(13,4,14)            107.0431         estimate D2E/DX2                !
 ! A15   A(4,5,6)              109.6075         estimate D2E/DX2                !
 ! A16   A(4,5,7)              110.7015         estimate D2E/DX2                !
 ! A17   A(4,5,15)             109.3383         estimate D2E/DX2                !
 ! A18   A(6,5,7)              110.0197         estimate D2E/DX2                !
 ! A19   A(6,5,15)             107.5923         estimate D2E/DX2                !
 ! A20   A(7,5,15)             109.5221         estimate D2E/DX2                !
 ! A21   A(5,6,16)             104.9948         estimate D2E/DX2                !
 ! A22   A(5,7,8)              109.7535         estimate D2E/DX2                !
 ! A23   A(5,7,9)              111.8785         estimate D2E/DX2                !
 ! A24   A(5,7,17)             109.4162         estimate D2E/DX2                !
 ! A25   A(8,7,9)              109.3017         estimate D2E/DX2                !
 ! A26   A(8,7,17)             107.0759         estimate D2E/DX2                !
 ! A27   A(9,7,17)             109.2939         estimate D2E/DX2                !
 ! A28   A(7,8,18)             104.878          estimate D2E/DX2                !
 ! A29   A(2,9,7)              110.4659         estimate D2E/DX2                !
 ! A30   A(2,9,10)             109.7886         estimate D2E/DX2                !
 ! A31   A(2,9,19)             109.3304         estimate D2E/DX2                !
 ! A32   A(7,9,10)             109.792          estimate D2E/DX2                !
 ! A33   A(7,9,19)             109.8824         estimate D2E/DX2                !
 ! A34   A(10,9,19)            107.5294         estimate D2E/DX2                !
 ! A35   A(9,10,20)            104.9774         estimate D2E/DX2                !
 ! D1    D(11,1,2,3)           -58.7434         estimate D2E/DX2                !
 ! D2    D(11,1,2,9)           179.5063         estimate D2E/DX2                !
 ! D3    D(11,1,2,12)           59.9747         estimate D2E/DX2                !
 ! D4    D(1,2,3,4)            -60.7653         estimate D2E/DX2                !
 ! D5    D(9,2,3,4)             60.3014         estimate D2E/DX2                !
 ! D6    D(12,2,3,4)          -177.6333         estimate D2E/DX2                !
 ! D7    D(1,2,9,7)             65.8544         estimate D2E/DX2                !
 ! D8    D(1,2,9,10)           -55.3692         estimate D2E/DX2                !
 ! D9    D(1,2,9,19)          -173.1075         estimate D2E/DX2                !
 ! D10   D(3,2,9,7)            -54.261          estimate D2E/DX2                !
 ! D11   D(3,2,9,10)          -175.4846         estimate D2E/DX2                !
 ! D12   D(3,2,9,19)            66.777          estimate D2E/DX2                !
 ! D13   D(12,2,9,7)          -176.3598         estimate D2E/DX2                !
 ! D14   D(12,2,9,10)           62.4167         estimate D2E/DX2                !
 ! D15   D(12,2,9,19)          -55.3217         estimate D2E/DX2                !
 ! D16   D(2,3,4,5)            -59.5677         estimate D2E/DX2                !
 ! D17   D(2,3,4,13)            58.5929         estimate D2E/DX2                !
 ! D18   D(2,3,4,14)           174.9353         estimate D2E/DX2                !
 ! D19   D(3,4,5,6)            174.1322         estimate D2E/DX2                !
 ! D20   D(3,4,5,7)             52.5905         estimate D2E/DX2                !
 ! D21   D(3,4,5,15)           -68.1544         estimate D2E/DX2                !
 ! D22   D(13,4,5,6)            58.9319         estimate D2E/DX2                !
 ! D23   D(13,4,5,7)           -62.6098         estimate D2E/DX2                !
 ! D24   D(13,4,5,15)          176.6453         estimate D2E/DX2                !
 ! D25   D(14,4,5,6)           -58.4583         estimate D2E/DX2                !
 ! D26   D(14,4,5,7)           180.0            estimate D2E/DX2                !
 ! D27   D(14,4,5,15)           59.2551         estimate D2E/DX2                !
 ! D28   D(4,5,6,16)            59.5569         estimate D2E/DX2                !
 ! D29   D(7,5,6,16)          -178.4925         estimate D2E/DX2                !
 ! D30   D(15,5,6,16)          -59.2414         estimate D2E/DX2                !
 ! D31   D(4,5,7,8)           -170.2775         estimate D2E/DX2                !
 ! D32   D(4,5,7,9)            -48.766          estimate D2E/DX2                !
 ! D33   D(4,5,7,17)            72.5038         estimate D2E/DX2                !
 ! D34   D(6,5,7,8)             68.4239         estimate D2E/DX2                !
 ! D35   D(6,5,7,9)           -170.0646         estimate D2E/DX2                !
 ! D36   D(6,5,7,17)           -48.7947         estimate D2E/DX2                !
 ! D37   D(15,5,7,8)           -49.6419         estimate D2E/DX2                !
 ! D38   D(15,5,7,9)            71.8697         estimate D2E/DX2                !
 ! D39   D(15,5,7,17)         -166.8605         estimate D2E/DX2                !
 ! D40   D(5,7,8,18)           -58.2008         estimate D2E/DX2                !
 ! D41   D(9,7,8,18)           178.7549         estimate D2E/DX2                !
 ! D42   D(17,7,8,18)           60.4723         estimate D2E/DX2                !
 ! D43   D(5,7,9,2)             49.647          estimate D2E/DX2                !
 ! D44   D(5,7,9,10)           170.8686         estimate D2E/DX2                !
 ! D45   D(5,7,9,19)           -71.0622         estimate D2E/DX2                !
 ! D46   D(8,7,9,2)            171.4186         estimate D2E/DX2                !
 ! D47   D(8,7,9,10)           -67.3598         estimate D2E/DX2                !
 ! D48   D(8,7,9,19)            50.7094         estimate D2E/DX2                !
 ! D49   D(17,7,9,2)           -71.6935         estimate D2E/DX2                !
 ! D50   D(17,7,9,10)           49.5281         estimate D2E/DX2                !
 ! D51   D(17,7,9,19)          167.5973         estimate D2E/DX2                !
 ! D52   D(2,9,10,20)         -179.5729         estimate D2E/DX2                !
 ! D53   D(7,9,10,20)           58.7993         estimate D2E/DX2                !
 ! D54   D(19,9,10,20)         -60.7196         estimate D2E/DX2                !
 --------------------------------------------------------------------------------
 Trust Radius=3.00D-01 FncErr=1.00D-07 GrdErr=1.00D-06 EigMax=2.50D+02 EigMin=1.00D-04
 Number of steps in this run=    119 maximum allowed number of steps=    120.
 GradGradGradGradGradGradGradGradGradGradGradGradGradGradGradGradGradGrad

 Leave Link  103 at Mon Feb 22 21:19:05 2021, MaxMem=   104857600 cpu:               1.0 elap:               0.1
 (Enter /sw/arch/RedHatEnterpriseServer7/EB_production/2019/software/Gaussian/g16.c01/l202.exe)
                          Input orientation:                          
 ---------------------------------------------------------------------
 Center     Atomic      Atomic             Coordinates (Angstroms)
 Number     Number       Type             X           Y           Z
 ---------------------------------------------------------------------
      1          8           0       -0.112350    0.921170    3.126160
      2          6           0       -1.035320    0.227470    2.292760
      3          8           0       -0.815230   -1.191280    2.450040
      4          6           0        0.511905   -1.617774    2.069954
      5          6           0        0.818959   -1.289474    0.584889
      6          8           0        2.180025   -1.603726    0.296765
      7          6           0        0.544232    0.211999    0.285516
      8          8           0        0.613306    0.443850   -1.120696
      9          6           0       -0.848020    0.663080    0.813300
     10          8           0       -0.968394    2.081778    0.708225
     11          1           0       -0.298690    0.599970    4.033090
     12          1           0       -2.041210    0.491350    2.635940
     13          1           0        1.178290   -1.041219    2.713128
     14          1           0        0.707734   -2.673988    2.270604
     15          1           0        0.191891   -1.911875   -0.061012
     16          1           0        2.264585   -2.562014    0.485730
     17          1           0        1.322589    0.823822    0.750526
     18          1           0        1.514555    0.158876   -1.378684
     19          1           0       -1.639613    0.218916    0.201888
     20          1           0       -0.846582    2.276565   -0.245262
 ---------------------------------------------------------------------
                    Distance matrix (angstroms):
                    1          2          3          4          5
     1  O    0.000000
     2  C    1.423955   0.000000
     3  O    2.326719   1.444309   0.000000
     4  C    2.819840   2.418362   1.444870   0.000000
     5  C    3.494615   2.942157   2.481733   1.551606   0.000000
     6  O    4.431203   4.204250   3.711908   2.434548   1.426279
     7  C    3.000546   2.554261   2.915903   2.556038   1.555480
     8  O    4.334766   3.796902   4.179057   3.800109   2.440436
     9  C    2.440726   1.553589   2.473589   2.937834   2.577490
    10  O    2.815357   2.440018   3.710834   4.210971   3.817745
    11  H    0.980007   1.926169   2.445698   3.070725   4.087692
    12  H    2.036065   1.095089   2.090175   3.359634   3.944453
    13  H    2.384810   2.585798   2.016396   1.090943   2.172591
    14  H    3.785455   3.384846   2.133082   1.092793   2.184235
    15  H    4.275134   3.409264   2.799809   2.174838   1.094434
    16  H    4.975365   4.683583   3.901626   2.544256   1.928478
    17  H    2.777079   2.879906   3.394003   2.891278   2.178783
    18  H    4.849900   4.470578   4.680806   4.006857   2.537162
    19  H    3.372990   2.176463   2.778930   3.390005   2.909726
    20  H    3.707112   3.267410   4.392219   4.729862   4.022414
                    6          7          8          9         10
     6  O    0.000000
     7  C    2.443932   0.000000
     8  O    2.942172   1.426870   0.000000
     9  C    3.817627   1.555762   2.433901   0.000000
    10  O    4.864646   2.441883   2.920536   1.427668   0.000000
    11  H    4.996041   3.860744   5.236183   3.266924   3.701214
    12  H    5.261170   3.505287   4.600111   2.185225   2.719647
    13  H    2.675575   2.804619   4.150042   3.258821   4.287307
    14  H    2.684985   3.506597   4.607683   3.959814   5.278991
    15  H    2.043438   2.180611   2.617243   2.911396   4.229332
    16  H    0.980395   3.270298   3.787156   4.494090   5.662726
    17  H    2.614208   1.093801   2.036893   2.177458   2.613972
    18  H    2.521259   1.927151   0.979805   3.262020   3.770647
    19  H    4.233281   2.185457   2.622111   1.094407   2.043812
    20  H    4.950839   2.545294   2.501300   1.929739   0.980774
                   11         12         13         14         15
    11  H    0.000000
    12  H    2.236113   0.000000
    13  H    2.572405   3.566498   0.000000
    14  H    3.852018   4.208269   1.755900   0.000000
    15  H    4.828219   4.246855   3.070322   2.506660   0.000000
    16  H    5.399285   5.699676   2.907603   2.371096   2.240015
    17  H    3.667954   3.870461   2.711275   3.863076   3.069382
    18  H    5.724484   5.373193   4.277410   4.689710   2.788138
    19  H    4.076934   2.481957   3.979303   4.261282   2.822020
    20  H    4.627684   3.593808   4.884657   5.766581   4.319191
                   16         17         18         19         20
    16  H    0.000000
    17  H    3.524395   0.000000
    18  H    3.382578   2.238870   0.000000
    19  H    4.801760   3.072712   3.528539   0.000000
    20  H    5.798755   2.794166   3.368118   2.250058   0.000000
 Stoichiometry    C5H10O5
 Framework group  C1[X(C5H10O5)]
 Deg. of freedom    54
 Full point group                 C1      NOp   1
 Largest Abelian subgroup         C1      NOp   1
 Largest concise Abelian subgroup C1      NOp   1
                         Standard orientation:                         
 ---------------------------------------------------------------------
 Center     Atomic      Atomic             Coordinates (Angstroms)
 Number     Number       Type             X           Y           Z
 ---------------------------------------------------------------------
      1          8           0       -1.762509   -0.892120    1.077953
      2          6           0       -1.509764   -0.635426   -0.299682
      3          8           0       -0.612569   -1.652459   -0.796387
      4          6           0        0.665149   -1.677898   -0.122267
      5          6           0        1.415921   -0.327046   -0.260186
      6          8           0        2.602017   -0.355676    0.531413
      7          6           0        0.507488    0.854792    0.184255
      8          8           0        1.125948    2.093990   -0.159046
      9          6           0       -0.900443    0.783046   -0.473757
     10          8           0       -1.761448    1.755091    0.119566
     11          1           0       -2.148911   -1.792430    1.101375
     12          1           0       -2.471003   -0.696184   -0.820786
     13          1           0        0.416920   -1.848366    0.926294
     14          1           0        1.310839   -2.501611   -0.436557
     15          1           0        1.717314   -0.184709   -1.302629
     16          1           0        3.125886   -1.104488    0.176424
     17          1           0        0.398930    0.840646    1.272564
     18          1           0        1.990823    2.079520    0.301171
     19          1           0       -0.825160    1.016595   -1.540300
     20          1           0       -1.317248    2.615609   -0.035719
 ---------------------------------------------------------------------
 Rotational constants (GHZ):           1.6333534           1.3180635           0.8463310
 Leave Link  202 at Mon Feb 22 21:19:05 2021, MaxMem=   104857600 cpu:               0.4 elap:               0.0
 (Enter /sw/arch/RedHatEnterpriseServer7/EB_production/2019/software/Gaussian/g16.c01/l301.exe)
 Standard basis: TZVP (5D, 7F)
 Ernie: Thresh=  0.10000D-02 Tol=  0.10000D-05 Strict=F.
 There are   260 symmetry adapted cartesian basis functions of A   symmetry.
 There are   250 symmetry adapted basis functions of A   symmetry.
   250 basis functions,   430 primitive gaussians,   260 cartesian basis functions
    40 alpha electrons       40 beta electrons
       nuclear repulsion energy       615.1280243524 Hartrees.
 IExCor=  404 DFT=T Ex=B Corr=P86 ExCW=0 ScaHFX=  0.000000
 ScaDFX=  1.000000  1.000000  1.000000  1.000000 ScalE2=  1.000000  1.000000
 IRadAn=      5 IRanWt=     -1 IRanGd=            0 ICorTp=0 IEmpDi=131
 NAtoms=   20 NActive=   20 NUniq=   20 SFac= 1.00D+00 NAtFMM=   60 NAOKFM=F Big=F
 Integral buffers will be    131072 words long.
 Raffenetti 2 integral format.
 Two-electron integral symmetry is turned on.
 R6Disp:  Grimme-D3 Dispersion energy=       -0.0228845016 Hartrees.
 Nuclear repulsion after empirical dispersion term =      615.1051398508 Hartrees.
 ------------------------------------------------------------------------------
 Polarizable Continuum Model (PCM)
 =================================
 Model                : PCM.
 Atomic radii         : UFF (Universal Force Field).
 Polarization charges : Total charges.
 Charge compensation  : None.
 Solution method      : On-the-fly selection.
 Cavity type          : Scaled VdW (van der Waals Surface) (Alpha=1.100).
 Cavity algorithm     : GePol (No added spheres)
                        Default sphere list used, NSphG=   20.
                        Lebedev-Laikov grids with approx.  5.0 points / Ang**2.
                        Smoothing algorithm: York/Karplus (Gamma=1.0000).
                        Polarization charges: spherical gaussians, with
                                              point-specific exponents (IZeta= 3).
                        Self-potential: point-specific (ISelfS= 7).
                        Self-field    : sphere-specific E.n sum rule (ISelfD= 2).
 1st derivatives      : Analytical E(r).r(x)/FMM algorithm (CHGder, D1EAlg=3).
                        Cavity 1st derivative terms included.
 Solvent              : Water, Eps=  78.355300 Eps(inf)=   1.777849
 ------------------------------------------------------------------------------
 Spheres list:
 ISph  on   Nord     Re0    Alpha      Xe            Ye            Ze
    1   O      1    1.7500  1.100     -1.762509     -0.892120      1.077953
    2   C      2    1.9255  1.100     -1.509764     -0.635426     -0.299682
    3   O      3    1.7500  1.100     -0.612569     -1.652459     -0.796387
    4   C      4    1.9255  1.100      0.665149     -1.677898     -0.122267
    5   C      5    1.9255  1.100      1.415921     -0.327046     -0.260186
    6   O      6    1.7500  1.100      2.602017     -0.355676      0.531413
    7   C      7    1.9255  1.100      0.507488      0.854792      0.184255
    8   O      8    1.7500  1.100      1.125948      2.093990     -0.159046
    9   C      9    1.9255  1.100     -0.900443      0.783046     -0.473757
   10   O     10    1.7500  1.100     -1.761448      1.755091      0.119566
   11   H     11    1.4430  1.100     -2.148911     -1.792430      1.101375
   12   H     12    1.4430  1.100     -2.471003     -0.696184     -0.820786
   13   H     13    1.4430  1.100      0.416920     -1.848366      0.926294
   14   H     14    1.4430  1.100      1.310839     -2.501611     -0.436557
   15   H     15    1.4430  1.100      1.717314     -0.184709     -1.302629
   16   H     16    1.4430  1.100      3.125886     -1.104488      0.176424
   17   H     17    1.4430  1.100      0.398930      0.840646      1.272564
   18   H     18    1.4430  1.100      1.990823      2.079520      0.301171
   19   H     19    1.4430  1.100     -0.825160      1.016595     -1.540300
   20   H     20    1.4430  1.100     -1.317248      2.615609     -0.035719
 ------------------------------------------------------------------------------
 GePol: Number of generator spheres                  =      20
 GePol: Total number of spheres                      =      20
 GePol: Number of exposed spheres                    =      20 (100.00%)
 GePol: Number of points                             =    1478
 GePol: Average weight of points                     =       0.13
 GePol: Minimum weight of points                     =   0.49D-11
 GePol: Maximum weight of points                     =    0.20322
 GePol: Number of points with low weight             =      87
 GePol: Fraction of low-weight points (<1% of avg)   =       5.89%
 GePol: Cavity surface area                          =    197.109 Ang**2
 GePol: Cavity volume                                =    198.926 Ang**3
 Leave Link  301 at Mon Feb 22 21:19:05 2021, MaxMem=   104857600 cpu:               1.7 elap:               0.1
 (Enter /sw/arch/RedHatEnterpriseServer7/EB_production/2019/software/Gaussian/g16.c01/l302.exe)
 NPDir=0 NMtPBC=     1 NCelOv=     1 NCel=       1 NClECP=     1 NCelD=      1
         NCelK=      1 NCelE2=     1 NClLst=     1 CellRange=     0.0.
 One-electron integrals computed using PRISM.
 One-electron integral symmetry used in STVInt
 PrsmSu:  requested number of processors reduced to:  28 ShMem   1 Linda.
 NBasis=   250 RedAO= T EigKep=  8.06D-05  NBF=   250
 NBsUse=   250 1.00D-06 EigRej= -1.00D+00 NBFU=   250
 Precomputing XC quadrature grid using
 IXCGrd= 4 IRadAn=           5 IRanWt=          -1 IRanGd=           0 AccXCQ= 0.00D+00.
 Generated NRdTot=       0 NPtTot=           0 NUsed=           0 NTot=          32
 NSgBfM=   258   258   258   258   258 MxSgAt=    20 MxSgA2=    20.
 Leave Link  302 at Mon Feb 22 21:19:06 2021, MaxMem=   104857600 cpu:               7.3 elap:               0.3
 (Enter /sw/arch/RedHatEnterpriseServer7/EB_production/2019/software/Gaussian/g16.c01/l303.exe)
 DipDrv:  MaxL=1.
 Leave Link  303 at Mon Feb 22 21:19:06 2021, MaxMem=   104857600 cpu:               2.8 elap:               0.1
 (Enter /sw/arch/RedHatEnterpriseServer7/EB_production/2019/software/Gaussian/g16.c01/l401.exe)
 ExpMin= 9.52D-02 ExpMax= 2.70D+04 ExpMxC= 9.22D+02 IAcc=3 IRadAn=         5 AccDes= 0.00D+00
 Harris functional with IExCor=  404 and IRadAn=       5 diagonalized for initial guess.
 HarFok:  IExCor=  404 AccDes= 0.00D+00 IRadAn=         5 IDoV= 1 UseB2=F ITyADJ=14
 ICtDFT=  3500011 ScaDFX=  1.000000  1.000000  1.000000  1.000000
 FoFCou: FMM=F IPFlag=           0 FMFlag=      100000 FMFlg1=           0
         NFxFlg=           0 DoJE=T BraDBF=F KetDBF=T FulRan=T
         wScrn=  0.000000 ICntrl=       500 IOpCl=  0 I1Cent=   200000004 NGrid=           0
         NMat0=    1 NMatS0=      1 NMatT0=    0 NMatD0=    1 NMtDS0=    0 NMtDT0=    0
 Petite list used in FoFCou.
 Harris En= -573.010206981379    
 JPrj=0 DoOrth=F DoCkMO=F.
 Leave Link  401 at Mon Feb 22 21:19:06 2021, MaxMem=   104857600 cpu:              12.6 elap:               0.4
 (Enter /sw/arch/RedHatEnterpriseServer7/EB_production/2019/software/Gaussian/g16.c01/l502.exe)
 Integral symmetry usage will be decided dynamically.
 Closed shell SCF:
 Using DIIS extrapolation, IDIIS=  1040.
 NGot=   104857600 LenX=   104710894 LenY=   104642853
 Requested convergence on RMS density matrix=1.00D-08 within 128 cycles.
 Requested convergence on MAX density matrix=1.00D-06.
 Requested convergence on             energy=1.00D-06.
 No special actions if energy rises.
 Fock matrices will be formed incrementally for  20 cycles.

 Cycle   1  Pass 1  IDiag  1:
 FoFJK:  IHMeth= 1 ICntrl=     500 DoSepK=F KAlg= 0 I1Cent=           0 FoldK=F
 IRaf= 940000000 NMat=       1 IRICut=       1 DoRegI=T DoRafI=F ISym2E= 0 IDoP0=0 IntGTp=1.
 FoFCou: FMM=F IPFlag=           0 FMFlag=      100000 FMFlg1=           0
         NFxFlg=           0 DoJE=T BraDBF=F KetDBF=F FulRan=T
         wScrn=  0.000000 ICntrl=       500 IOpCl=  0 I1Cent=           0 NGrid=           0
         NMat0=    1 NMatS0=      1 NMatT0=    0 NMatD0=    1 NMtDS0=    0 NMtDT0=    0
 Symmetry not used in FoFCou.
 Inv3:  Mode=1 IEnd=     6553452.
 Iteration    1 A*A^-1 deviation from unit magnitude is 2.89D-15 for    394.
 Iteration    1 A*A^-1 deviation from orthogonality  is 1.52D-15 for   1074    682.
 Iteration    1 A^-1*A deviation from unit magnitude is 3.00D-15 for    597.
 Iteration    1 A^-1*A deviation from orthogonality  is 2.51D-15 for    973    462.
 E= -572.683092829383    
 DIIS: error= 2.44D-02 at cycle   1 NSaved=   1.
 NSaved= 1 IEnMin= 1 EnMin= -572.683092829383     IErMin= 1 ErrMin= 2.44D-02
 ErrMax= 2.44D-02  0.00D+00 EMaxC= 1.00D-01 BMatC= 2.76D-01 BMatP= 2.76D-01
 IDIUse=3 WtCom= 7.56D-01 WtEn= 2.44D-01
 Coeff-Com:  0.100D+01
 Coeff-En:   0.100D+01
 Coeff:      0.100D+01
 Gap=     0.193 Goal=   None    Shift=    0.000
 GapD=    0.193 DampG=1.000 DampE=0.500 DampFc=0.5000 IDamp=-1.
 Damping current iteration by 5.00D-01
 RMSDP=1.24D-02 MaxDP=1.00D+00              OVMax= 1.75D-01

 Cycle   2  Pass 1  IDiag  1:
 RMSU=  6.13D-03    CP:  1.06D+00
 E= -572.710953323272     Delta-E=       -0.027860493889 Rises=F Damp=T
 DIIS: error= 1.12D-02 at cycle   2 NSaved=   2.
 NSaved= 2 IEnMin= 2 EnMin= -572.710953323272     IErMin= 2 ErrMin= 1.12D-02
 ErrMax= 1.12D-02  0.00D+00 EMaxC= 1.00D-01 BMatC= 6.29D-02 BMatP= 2.76D-01
 IDIUse=3 WtCom= 8.88D-01 WtEn= 1.12D-01
 Coeff-Com:  0.299D+00 0.701D+00
 Coeff-En:   0.443D+00 0.557D+00
 Coeff:      0.315D+00 0.685D+00
 Gap=     0.229 Goal=   None    Shift=    0.000
 RMSDP=3.35D-03 MaxDP=2.99D-01 DE=-2.79D-02 OVMax= 1.08D-01

 Cycle   3  Pass 1  IDiag  1:
 RMSU=  1.25D-03    CP:  1.03D+00  4.99D-01
 E= -572.883908857339     Delta-E=       -0.172955534067 Rises=F Damp=F
 DIIS: error= 4.12D-03 at cycle   3 NSaved=   3.
 NSaved= 3 IEnMin= 3 EnMin= -572.883908857339     IErMin= 3 ErrMin= 4.12D-03
 ErrMax= 4.12D-03  0.00D+00 EMaxC= 1.00D-01 BMatC= 9.03D-03 BMatP= 6.29D-02
 IDIUse=3 WtCom= 9.59D-01 WtEn= 4.12D-02
 Coeff-Com:  0.108D+00 0.305D+00 0.587D+00
 Coeff-En:   0.000D+00 0.000D+00 0.100D+01
 Coeff:      0.103D+00 0.293D+00 0.604D+00
 Gap=     0.231 Goal=   None    Shift=    0.000
 RMSDP=7.14D-04 MaxDP=1.37D-02 DE=-1.73D-01 OVMax= 2.12D-02

 Cycle   4  Pass 1  IDiag  1:
 RMSU=  6.00D-04    CP:  1.03D+00  5.04D-01  6.96D-01
 E= -572.889338818695     Delta-E=       -0.005429961356 Rises=F Damp=F
 DIIS: error= 2.32D-03 at cycle   4 NSaved=   4.
 NSaved= 4 IEnMin= 4 EnMin= -572.889338818695     IErMin= 4 ErrMin= 2.32D-03
 ErrMax= 2.32D-03  0.00D+00 EMaxC= 1.00D-01 BMatC= 3.45D-03 BMatP= 9.03D-03
 IDIUse=3 WtCom= 9.77D-01 WtEn= 2.32D-02
 Coeff-Com:  0.352D-01 0.920D-01 0.382D+00 0.491D+00
 Coeff-En:   0.000D+00 0.000D+00 0.287D+00 0.713D+00
 Coeff:      0.344D-01 0.899D-01 0.380D+00 0.496D+00
 Gap=     0.224 Goal=   None    Shift=    0.000
 RMSDP=3.69D-04 MaxDP=1.07D-02 DE=-5.43D-03 OVMax= 8.68D-03

 Cycle   5  Pass 1  IDiag  1:
 RMSU=  1.43D-04    CP:  1.03D+00  4.95D-01  8.13D-01  5.04D-01
 E= -572.892281667416     Delta-E=       -0.002942848720 Rises=F Damp=F
 DIIS: error= 5.93D-04 at cycle   5 NSaved=   5.
 NSaved= 5 IEnMin= 5 EnMin= -572.892281667416     IErMin= 5 ErrMin= 5.93D-04
 ErrMax= 5.93D-04  0.00D+00 EMaxC= 1.00D-01 BMatC= 1.30D-04 BMatP= 3.45D-03
 IDIUse=3 WtCom= 9.94D-01 WtEn= 5.93D-03
 Coeff-Com:  0.123D-01 0.244D-01 0.156D+00 0.250D+00 0.558D+00
 Coeff-En:   0.000D+00 0.000D+00 0.000D+00 0.000D+00 0.100D+01
 Coeff:      0.122D-01 0.243D-01 0.155D+00 0.248D+00 0.560D+00
 Gap=     0.224 Goal=   None    Shift=    0.000
 RMSDP=6.43D-05 MaxDP=1.79D-03 DE=-2.94D-03 OVMax= 2.96D-03

 Cycle   6  Pass 1  IDiag  1:
 RMSU=  4.88D-05    CP:  1.03D+00  4.96D-01  8.03D-01  5.42D-01  7.74D-01
 E= -572.892338508997     Delta-E=       -0.000056841581 Rises=F Damp=F
 DIIS: error= 3.86D-04 at cycle   6 NSaved=   6.
 NSaved= 6 IEnMin= 6 EnMin= -572.892338508997     IErMin= 6 ErrMin= 3.86D-04
 ErrMax= 3.86D-04  0.00D+00 EMaxC= 1.00D-01 BMatC= 5.24D-05 BMatP= 1.30D-04
 IDIUse=3 WtCom= 9.96D-01 WtEn= 3.86D-03
 Coeff-Com:  0.396D-02 0.366D-02 0.579D-01 0.108D+00 0.404D+00 0.422D+00
 Coeff-En:   0.000D+00 0.000D+00 0.000D+00 0.000D+00 0.301D+00 0.699D+00
 Coeff:      0.395D-02 0.364D-02 0.577D-01 0.108D+00 0.403D+00 0.423D+00
 Gap=     0.224 Goal=   None    Shift=    0.000
 RMSDP=2.97D-05 MaxDP=9.03D-04 DE=-5.68D-05 OVMax= 1.09D-03

 Cycle   7  Pass 1  IDiag  1:
 RMSU=  1.01D-05    CP:  1.03D+00  4.95D-01  8.05D-01  5.49D-01  7.43D-01
                    CP:  4.55D-01
 E= -572.892374993365     Delta-E=       -0.000036484368 Rises=F Damp=F
 DIIS: error= 3.12D-05 at cycle   7 NSaved=   7.
 NSaved= 7 IEnMin= 7 EnMin= -572.892374993365     IErMin= 7 ErrMin= 3.12D-05
 ErrMax= 3.12D-05  0.00D+00 EMaxC= 1.00D-01 BMatC= 4.42D-07 BMatP= 5.24D-05
 IDIUse=1 WtCom= 1.00D+00 WtEn= 0.00D+00
 Coeff-Com:  0.152D-02 0.620D-03 0.207D-01 0.393D-01 0.158D+00 0.182D+00
 Coeff-Com:  0.599D+00
 Coeff:      0.152D-02 0.620D-03 0.207D-01 0.393D-01 0.158D+00 0.182D+00
 Coeff:      0.599D+00
 Gap=     0.224 Goal=   None    Shift=    0.000
 RMSDP=5.30D-06 MaxDP=2.92D-04 DE=-3.65D-05 OVMax= 1.17D-04

 Cycle   8  Pass 1  IDiag  1:
 RMSU=  3.05D-06    CP:  1.03D+00  4.95D-01  8.05D-01  5.48D-01  7.54D-01
                    CP:  4.80D-01  7.05D-01
 E= -572.892375166464     Delta-E=       -0.000000173099 Rises=F Damp=F
 DIIS: error= 2.30D-05 at cycle   8 NSaved=   8.
 NSaved= 8 IEnMin= 8 EnMin= -572.892375166464     IErMin= 8 ErrMin= 2.30D-05
 ErrMax= 2.30D-05  0.00D+00 EMaxC= 1.00D-01 BMatC= 1.64D-07 BMatP= 4.42D-07
 IDIUse=1 WtCom= 1.00D+00 WtEn= 0.00D+00
 Coeff-Com:  0.570D-03-0.698D-04 0.662D-02 0.125D-01 0.537D-01 0.669D-01
 Coeff-Com:  0.400D+00 0.460D+00
 Coeff:      0.570D-03-0.698D-04 0.662D-02 0.125D-01 0.537D-01 0.669D-01
 Coeff:      0.400D+00 0.460D+00
 Gap=     0.224 Goal=   None    Shift=    0.000
 RMSDP=1.79D-06 MaxDP=4.65D-05 DE=-1.73D-07 OVMax= 6.78D-05

 Cycle   9  Pass 1  IDiag  1:
 RMSU=  1.26D-06    CP:  1.03D+00  4.95D-01  8.05D-01  5.47D-01  7.53D-01
                    CP:  4.79D-01  7.35D-01  6.15D-01
 E= -572.892375303194     Delta-E=       -0.000000136730 Rises=F Damp=F
 DIIS: error= 4.16D-06 at cycle   9 NSaved=   9.
 NSaved= 9 IEnMin= 9 EnMin= -572.892375303194     IErMin= 9 ErrMin= 4.16D-06
 ErrMax= 4.16D-06  0.00D+00 EMaxC= 1.00D-01 BMatC= 5.92D-09 BMatP= 1.64D-07
 IDIUse=1 WtCom= 1.00D+00 WtEn= 0.00D+00
 Coeff-Com:  0.107D-03-0.102D-03 0.735D-03 0.128D-02 0.612D-02 0.890D-02
 Coeff-Com:  0.113D+00 0.208D+00 0.662D+00
 Coeff:      0.107D-03-0.102D-03 0.735D-03 0.128D-02 0.612D-02 0.890D-02
 Coeff:      0.113D+00 0.208D+00 0.662D+00
 Gap=     0.224 Goal=   None    Shift=    0.000
 RMSDP=5.91D-07 MaxDP=2.38D-05 DE=-1.37D-07 OVMax= 1.40D-05

 Cycle  10  Pass 1  IDiag  1:
 RMSU=  3.29D-07    CP:  1.03D+00  4.95D-01  8.05D-01  5.47D-01  7.53D-01
                    CP:  4.78D-01  7.50D-01  6.83D-01  7.58D-01
 E= -572.892375306517     Delta-E=       -0.000000003322 Rises=F Damp=F
 DIIS: error= 1.78D-06 at cycle  10 NSaved=  10.
 NSaved=10 IEnMin=10 EnMin= -572.892375306517     IErMin=10 ErrMin= 1.78D-06
 ErrMax= 1.78D-06  0.00D+00 EMaxC= 1.00D-01 BMatC= 1.15D-09 BMatP= 5.92D-09
 IDIUse=1 WtCom= 1.00D+00 WtEn= 0.00D+00
 Coeff-Com:  0.221D-04-0.584D-04-0.505D-04-0.160D-03-0.341D-03 0.369D-03
 Coeff-Com:  0.383D-01 0.902D-01 0.399D+00 0.473D+00
 Coeff:      0.221D-04-0.584D-04-0.505D-04-0.160D-03-0.341D-03 0.369D-03
 Coeff:      0.383D-01 0.902D-01 0.399D+00 0.473D+00
 Gap=     0.224 Goal=   None    Shift=    0.000
 RMSDP=2.03D-07 MaxDP=7.00D-06 DE=-3.32D-09 OVMax= 5.10D-06

 Cycle  11  Pass 1  IDiag  1:
 RMSU=  9.76D-08    CP:  1.03D+00  4.95D-01  8.05D-01  5.47D-01  7.53D-01
                    CP:  4.78D-01  7.55D-01  6.72D-01  8.03D-01  5.66D-01
 E= -572.892375292406     Delta-E=        0.000000014110 Rises=F Damp=F
 DIIS: error= 1.62D-07 at cycle  11 NSaved=  11.
 NSaved=11 IEnMin=10 EnMin= -572.892375306517     IErMin=11 ErrMin= 1.62D-07
 ErrMax= 1.62D-07  0.00D+00 EMaxC= 1.00D-01 BMatC= 1.76D-11 BMatP= 1.15D-09
 IDIUse=1 WtCom= 1.00D+00 WtEn= 0.00D+00
 Coeff-Com:  0.183D-05-0.153D-04-0.565D-04-0.121D-03-0.452D-03-0.325D-03
 Coeff-Com:  0.767D-02 0.217D-01 0.110D+00 0.181D+00 0.680D+00
 Coeff:      0.183D-05-0.153D-04-0.565D-04-0.121D-03-0.452D-03-0.325D-03
 Coeff:      0.767D-02 0.217D-01 0.110D+00 0.181D+00 0.680D+00
 Gap=     0.224 Goal=   None    Shift=    0.000
 RMSDP=3.17D-08 MaxDP=8.52D-07 DE= 1.41D-08 OVMax= 6.86D-07

 Cycle  12  Pass 1  IDiag  1:
 RMSU=  1.63D-08    CP:  1.03D+00  4.95D-01  8.05D-01  5.47D-01  7.53D-01
                    CP:  4.78D-01  7.54D-01  6.74D-01  8.05D-01  5.82D-01
                    CP:  7.61D-01
 E= -572.892375292424     Delta-E=       -0.000000000018 Rises=F Damp=F
 DIIS: error= 4.01D-08 at cycle  12 NSaved=  12.
 NSaved=12 IEnMin=10 EnMin= -572.892375306517     IErMin=12 ErrMin= 4.01D-08
 ErrMax= 4.01D-08  0.00D+00 EMaxC= 1.00D-01 BMatC= 1.06D-12 BMatP= 1.76D-11
 IDIUse=1 WtCom= 1.00D+00 WtEn= 0.00D+00
 Coeff-Com:  0.221D-06-0.525D-05-0.231D-04-0.483D-04-0.189D-03-0.141D-03
 Coeff-Com:  0.243D-02 0.739D-02 0.389D-01 0.694D-01 0.311D+00 0.571D+00
 Coeff:      0.221D-06-0.525D-05-0.231D-04-0.483D-04-0.189D-03-0.141D-03
 Coeff:      0.243D-02 0.739D-02 0.389D-01 0.694D-01 0.311D+00 0.571D+00
 Gap=     0.224 Goal=   None    Shift=    0.000
 RMSDP=8.64D-09 MaxDP=4.84D-07 DE=-1.78D-11 OVMax= 1.92D-07

 Error on total polarization charges =  0.00982
 SCF Done:  E(RB-P86) =  -572.892375292     A.U. after   12 cycles
            NFock= 12  Conv=0.86D-08     -V/T= 2.0043
 KE= 5.704226226209D+02 PE=-2.576071780278D+03 EE= 8.176516425136D+02
 Leave Link  502 at Mon Feb 22 21:19:19 2021, MaxMem=   104857600 cpu:             393.7 elap:              12.6
 (Enter /sw/arch/RedHatEnterpriseServer7/EB_production/2019/software/Gaussian/g16.c01/l601.exe)
 Copying SCF densities to generalized density rwf, IOpCl= 0 IROHF=0.

 **********************************************************************

            Population analysis using the SCF Density.

 **********************************************************************

 Orbital symmetries:
       Occupied  (A) (A) (A) (A) (A) (A) (A) (A) (A) (A) (A) (A)
                 (A) (A) (A) (A) (A) (A) (A) (A) (A) (A) (A) (A)
                 (A) (A) (A) (A) (A) (A) (A) (A) (A) (A) (A) (A)
                 (A) (A) (A) (A)
       Virtual   (A) (A) (A) (A) (A) (A) (A) (A) (A) (A) (A) (A)
                 (A) (A) (A) (A) (A) (A) (A) (A) (A) (A) (A) (A)
                 (A) (A) (A) (A) (A) (A) (A) (A) (A) (A) (A) (A)
                 (A) (A) (A) (A) (A) (A) (A) (A) (A) (A) (A) (A)
                 (A) (A) (A) (A) (A) (A) (A) (A) (A) (A) (A) (A)
                 (A) (A) (A) (A) (A) (A) (A) (A) (A) (A) (A) (A)
                 (A) (A) (A) (A) (A) (A) (A) (A) (A) (A) (A) (A)
                 (A) (A) (A) (A) (A) (A) (A) (A) (A) (A) (A) (A)
                 (A) (A) (A) (A) (A) (A) (A) (A) (A) (A) (A) (A)
                 (A) (A) (A) (A) (A) (A) (A) (A) (A) (A) (A) (A)
                 (A) (A) (A) (A) (A) (A) (A) (A) (A) (A) (A) (A)
                 (A) (A) (A) (A) (A) (A) (A) (A) (A) (A) (A) (A)
                 (A) (A) (A) (A) (A) (A) (A) (A) (A) (A) (A) (A)
                 (A) (A) (A) (A) (A) (A) (A) (A) (A) (A) (A) (A)
                 (A) (A) (A) (A) (A) (A) (A) (A) (A) (A) (A) (A)
                 (A) (A) (A) (A) (A) (A) (A) (A) (A) (A) (A) (A)
                 (A) (A) (A) (A) (A) (A) (A) (A) (A) (A) (A) (A)
                 (A) (A) (A) (A) (A) (A)
 The electronic state is 1-A.
 Alpha  occ. eigenvalues --  -18.79388 -18.78803 -18.78754 -18.78337 -18.78309
 Alpha  occ. eigenvalues --  -10.01186  -9.96739  -9.96087  -9.95911  -9.95015
 Alpha  occ. eigenvalues --   -0.99420  -0.96578  -0.95469  -0.94010  -0.92542
 Alpha  occ. eigenvalues --   -0.71280  -0.69247  -0.60070  -0.58749  -0.53141
 Alpha  occ. eigenvalues --   -0.50680  -0.48738  -0.48014  -0.45926  -0.44622
 Alpha  occ. eigenvalues --   -0.42198  -0.41029  -0.39368  -0.38422  -0.37345
 Alpha  occ. eigenvalues --   -0.35268  -0.33877  -0.32505  -0.30488  -0.28382
 Alpha  occ. eigenvalues --   -0.26632  -0.25499  -0.24756  -0.24182  -0.23030
 Alpha virt. eigenvalues --   -0.00650   0.01355   0.01974   0.03659   0.04461
 Alpha virt. eigenvalues --    0.06398   0.07783   0.08262   0.09025   0.10174
 Alpha virt. eigenvalues --    0.10991   0.11881   0.12963   0.13480   0.13849
 Alpha virt. eigenvalues --    0.15589   0.16297   0.18063   0.19716   0.20567
 Alpha virt. eigenvalues --    0.23725   0.25175   0.26153   0.27206   0.27481
 Alpha virt. eigenvalues --    0.28832   0.29915   0.30479   0.30824   0.32037
 Alpha virt. eigenvalues --    0.32592   0.33138   0.34378   0.35133   0.35771
 Alpha virt. eigenvalues --    0.37695   0.38495   0.38743   0.39837   0.40616
 Alpha virt. eigenvalues --    0.41132   0.41709   0.42839   0.44541   0.45117
 Alpha virt. eigenvalues --    0.45448   0.47451   0.49081   0.50258   0.52376
 Alpha virt. eigenvalues --    0.52620   0.54594   0.55173   0.56650   0.59051
 Alpha virt. eigenvalues --    0.59818   0.60615   0.63436   0.64605   0.68309
 Alpha virt. eigenvalues --    0.70622   0.72410   0.75900   0.77372   0.82244
 Alpha virt. eigenvalues --    0.82831   0.86306   0.86623   0.90317   0.96837
 Alpha virt. eigenvalues --    1.10180   1.14529   1.19221   1.20777   1.22116
 Alpha virt. eigenvalues --    1.22281   1.24019   1.24841   1.27250   1.28247
 Alpha virt. eigenvalues --    1.28644   1.30030   1.30304   1.32651   1.34463
 Alpha virt. eigenvalues --    1.35392   1.36354   1.38720   1.40571   1.41184
 Alpha virt. eigenvalues --    1.43321   1.44306   1.45195   1.48585   1.49148
 Alpha virt. eigenvalues --    1.50863   1.52763   1.55798   1.57059   1.61094
 Alpha virt. eigenvalues --    1.64164   1.65182   1.66200   1.66913   1.70404
 Alpha virt. eigenvalues --    1.72894   1.74454   1.76190   1.78419   1.81315
 Alpha virt. eigenvalues --    1.84021   1.84740   1.88300   1.89011   1.89440
 Alpha virt. eigenvalues --    1.91425   1.92712   1.94319   1.94631   1.96396
 Alpha virt. eigenvalues --    1.99152   2.01436   2.03331   2.03897   2.06279
 Alpha virt. eigenvalues --    2.06871   2.08847   2.10957   2.16679   2.21914
 Alpha virt. eigenvalues --    2.23409   2.26642   2.27255   2.31305   2.33530
 Alpha virt. eigenvalues --    2.36811   2.41903   2.43572   2.44729   2.48648
 Alpha virt. eigenvalues --    2.50286   2.51678   2.54687   2.57975   2.58712
 Alpha virt. eigenvalues --    2.60543   2.60806   2.61564   2.62554   2.63401
 Alpha virt. eigenvalues --    2.65416   2.66042   2.67842   2.69332   2.72835
 Alpha virt. eigenvalues --    2.74280   2.74620   2.79504   2.81483   2.83491
 Alpha virt. eigenvalues --    2.85870   2.86191   2.87288   2.88176   2.89074
 Alpha virt. eigenvalues --    2.89917   2.91450   2.91791   2.93220   2.95572
 Alpha virt. eigenvalues --    2.96770   2.99388   3.00798   3.03719   3.06486
 Alpha virt. eigenvalues --    3.08027   3.09301   3.10964   3.12689   3.14023
 Alpha virt. eigenvalues --    3.18739   3.19876   3.24025   3.25462   3.28991
 Alpha virt. eigenvalues --    3.34670   3.37803   3.38799   3.40142   3.45252
 Alpha virt. eigenvalues --    3.79076   3.86830   3.90143   3.93151   3.94721
 Alpha virt. eigenvalues --    3.98913   4.15310   4.16195   4.16733   4.17464
 Alpha virt. eigenvalues --   21.55924  21.66539  21.74285  21.76199  21.86425
 Alpha virt. eigenvalues --   43.11417  43.18676  43.21884  43.26398  43.39788
          Condensed to atoms (all electrons):
               1          2          3          4          5          6
     1  O    7.973206   0.266780  -0.087004  -0.034979   0.012508  -0.000001
     2  C    0.266780   5.621641   0.223971  -0.251435   0.072168   0.000107
     3  O   -0.087004   0.223971   8.070114   0.204568  -0.025468   0.005931
     4  C   -0.034979  -0.251435   0.204568   5.557955  -0.023459  -0.052422
     5  C    0.012508   0.072168  -0.025468  -0.023459   5.698573   0.259256
     6  O   -0.000001   0.000107   0.005931  -0.052422   0.259256   7.949534
     7  C   -0.040785   0.101426  -0.041323  -0.045746  -0.038216  -0.081497
     8  O   -0.000178   0.011204  -0.000279   0.018892  -0.034436  -0.003789
     9  C   -0.049992  -0.264706   0.016574   0.129080  -0.062792   0.015759
    10  O    0.007032  -0.080589   0.003973  -0.000490   0.020158  -0.000128
    11  H    0.288980  -0.026127   0.007422   0.000144   0.001285  -0.000036
    12  H   -0.054041   0.412351  -0.044038   0.002036  -0.001542   0.000060
    13  H    0.044453  -0.029207  -0.057334   0.399021  -0.043867   0.012411
    14  H    0.000254   0.012787  -0.021695   0.351352  -0.017436  -0.002551
    15  H    0.001067  -0.004841   0.008131  -0.072142   0.429653  -0.056752
    16  H   -0.000011   0.000487   0.000325  -0.004573  -0.035770   0.302096
    17  H    0.018814  -0.009598   0.000190  -0.013577  -0.041102   0.003143
    18  H    0.000010  -0.002324   0.000008   0.003692  -0.011479   0.013576
    19  H    0.005730  -0.056566   0.000293   0.004804  -0.010636  -0.000506
    20  H   -0.000227   0.017886  -0.000277  -0.000902   0.003332  -0.000042
               7          8          9         10         11         12
     1  O   -0.040785  -0.000178  -0.049992   0.007032   0.288980  -0.054041
     2  C    0.101426   0.011204  -0.264706  -0.080589  -0.026127   0.412351
     3  O   -0.041323  -0.000279   0.016574   0.003973   0.007422  -0.044038
     4  C   -0.045746   0.018892   0.129080  -0.000490   0.000144   0.002036
     5  C   -0.038216  -0.034436  -0.062792   0.020158   0.001285  -0.001542
     6  O   -0.081497  -0.003789   0.015759  -0.000128  -0.000036   0.000060
     7  C    6.000575   0.247996  -0.188337  -0.027914   0.000106   0.014332
     8  O    0.247996   7.950676  -0.079234  -0.003486   0.000007  -0.000129
     9  C   -0.188337  -0.079234   6.033021   0.259217   0.012668  -0.076364
    10  O   -0.027914  -0.003486   0.259217   7.931511  -0.000380   0.004561
    11  H    0.000106   0.000007   0.012668  -0.000380   0.436024  -0.012237
    12  H    0.014332  -0.000129  -0.076364   0.004561  -0.012237   0.580297
    13  H   -0.036558  -0.000372  -0.002235   0.000009  -0.000637   0.001035
    14  H    0.018209  -0.000475  -0.004320   0.000038  -0.000326   0.000163
    15  H   -0.084296   0.002855  -0.004586  -0.000440   0.000053  -0.000368
    16  H    0.013887  -0.000569  -0.001637   0.000023  -0.000008  -0.000005
    17  H    0.356861  -0.060185  -0.050030  -0.000149  -0.000234   0.000212
    18  H   -0.044828   0.306435   0.022651  -0.000621  -0.000006   0.000033
    19  H   -0.043064   0.002067   0.395103  -0.053445  -0.000346  -0.009716
    20  H    0.008167   0.014247  -0.058793   0.303010   0.000081  -0.000679
              13         14         15         16         17         18
     1  O    0.044453   0.000254   0.001067  -0.000011   0.018814   0.000010
     2  C   -0.029207   0.012787  -0.004841   0.000487  -0.009598  -0.002324
     3  O   -0.057334  -0.021695   0.008131   0.000325   0.000190   0.000008
     4  C    0.399021   0.351352  -0.072142  -0.004573  -0.013577   0.003692
     5  C   -0.043867  -0.017436   0.429653  -0.035770  -0.041102  -0.011479
     6  O    0.012411  -0.002551  -0.056752   0.302096   0.003143   0.013576
     7  C   -0.036558   0.018209  -0.084296   0.013887   0.356861  -0.044828
     8  O   -0.000372  -0.000475   0.002855  -0.000569  -0.060185   0.306435
     9  C   -0.002235  -0.004320  -0.004586  -0.001637  -0.050030   0.022651
    10  O    0.000009   0.000038  -0.000440   0.000023  -0.000149  -0.000621
    11  H   -0.000637  -0.000326   0.000053  -0.000008  -0.000234  -0.000006
    12  H    0.001035   0.000163  -0.000368  -0.000005   0.000212   0.000033
    13  H    0.582022  -0.035762   0.013709  -0.000901   0.008209   0.000001
    14  H   -0.035762   0.532239  -0.015666   0.006286  -0.000834  -0.000051
    15  H    0.013709  -0.015666   0.619691  -0.007608   0.013911  -0.002807
    16  H   -0.000901   0.006286  -0.007608   0.429057  -0.000593  -0.000677
    17  H    0.008209  -0.000834   0.013911  -0.000593   0.613782  -0.007876
    18  H    0.000001  -0.000051  -0.002807  -0.000677  -0.007876   0.425186
    19  H    0.000791  -0.000087   0.007670   0.000009   0.014739  -0.000709
    20  H   -0.000026   0.000000  -0.000035   0.000004  -0.005406  -0.000585
              19         20
     1  O    0.005730  -0.000227
     2  C   -0.056566   0.017886
     3  O    0.000293  -0.000277
     4  C    0.004804  -0.000902
     5  C   -0.010636   0.003332
     6  O   -0.000506  -0.000042
     7  C   -0.043064   0.008167
     8  O    0.002067   0.014247
     9  C    0.395103  -0.058793
    10  O   -0.053445   0.303010
    11  H   -0.000346   0.000081
    12  H   -0.009716  -0.000679
    13  H    0.000791  -0.000026
    14  H   -0.000087   0.000000
    15  H    0.007670  -0.000035
    16  H    0.000009   0.000004
    17  H    0.014739  -0.005406
    18  H   -0.000709  -0.000585
    19  H    0.582586  -0.010572
    20  H   -0.010572   0.435479
 Mulliken charges:
               1
     1  O   -0.351617
     2  C   -0.015414
     3  O   -0.264082
     4  C   -0.171820
     5  C   -0.150730
     6  O   -0.364151
     7  C   -0.088992
     8  O   -0.371247
     9  C   -0.041047
    10  O   -0.361890
    11  H    0.293568
    12  H    0.184037
    13  H    0.145238
    14  H    0.177875
    15  H    0.152800
    16  H    0.300178
    17  H    0.159723
    18  H    0.300373
    19  H    0.171856
    20  H    0.295339
 Sum of Mulliken charges =  -0.00000
 Mulliken charges with hydrogens summed into heavy atoms:
               1
     1  O   -0.058048
     2  C    0.168623
     3  O   -0.264082
     4  C    0.151293
     5  C    0.002070
     6  O   -0.063972
     7  C    0.070731
     8  O   -0.070874
     9  C    0.130809
    10  O   -0.066551
 Electronic spatial extent (au):  <R**2>=           1401.2309
 Charge=              0.0000 electrons
 Dipole moment (field-independent basis, Debye):
    X=              2.2976    Y=             -2.4793    Z=             -1.2038  Tot=              3.5881
 Quadrupole moment (field-independent basis, Debye-Ang):
   XX=            -54.8506   YY=            -54.7243   ZZ=            -63.2663
   XY=             -0.0963   XZ=              0.3482   YZ=             -2.1572
 Traceless Quadrupole moment (field-independent basis, Debye-Ang):
   XX=              2.7631   YY=              2.8895   ZZ=             -5.6526
   XY=             -0.0963   XZ=              0.3482   YZ=             -2.1572
 Octapole moment (field-independent basis, Debye-Ang**2):
  XXX=             21.1572  YYY=              0.4431  ZZZ=              0.7948  XYY=              3.8623
  XXY=            -27.3543  XXZ=             -9.8305  XZZ=             -0.3041  YZZ=              3.0717
  YYZ=             12.6644  XYZ=             13.1112
 Hexadecapole moment (field-independent basis, Debye-Ang**3):
 XXXX=           -762.3556 YYYY=           -622.5206 ZZZZ=           -184.0261 XXXY=             21.2150
 XXXZ=             -9.9307 YYYX=            -15.0469 YYYZ=            -12.7330 ZZZX=             -2.2237
 ZZZY=             -6.9371 XXYY=           -194.0814 XXZZ=           -177.6110 YYZZ=           -144.3271
 XXYZ=             -2.5242 YYXZ=             -6.1597 ZZXY=              4.7603
 N-N= 6.151051398508D+02 E-N=-2.576071779356D+03  KE= 5.704226226209D+02
 No NMR shielding tensors so no spin-rotation constants.
 Leave Link  601 at Mon Feb 22 21:19:19 2021, MaxMem=   104857600 cpu:               5.1 elap:               0.2
 (Enter /sw/arch/RedHatEnterpriseServer7/EB_production/2019/software/Gaussian/g16.c01/l701.exe)
 ... and contract with generalized density number  0.
 Compute integral first derivatives.
 R6Disp: Adding Grimme-D3 dispersion energy 1st derivatives to the gradient.
 PrsmSu:  requested number of processors reduced to:  29 ShMem   1 Linda.
 D1PCM: PCM CHGder 1st derivatives, ID1Alg=3 FixD1E=F DoIter=F DoCFld=F I1PDM=0.
 GePol: Maximum number of non-zero 1st derivatives   =     179
 CoulSu:  requested number of processors reduced to:  29 ShMem   1 Linda.
 CoulSu:  requested number of processors reduced to:  30 ShMem   1 Linda.
 Leave Link  701 at Mon Feb 22 21:19:20 2021, MaxMem=   104857600 cpu:              21.1 elap:               0.7
 (Enter /sw/arch/RedHatEnterpriseServer7/EB_production/2019/software/Gaussian/g16.c01/l702.exe)
 L702 exits ... SP integral derivatives will be done elsewhere.
 Leave Link  702 at Mon Feb 22 21:19:20 2021, MaxMem=   104857600 cpu:               0.7 elap:               0.1
 (Enter /sw/arch/RedHatEnterpriseServer7/EB_production/2019/software/Gaussian/g16.c01/l703.exe)
 Integral derivatives from FoFJK, PRISM(SPDF).
 Compute integral first derivatives, UseDBF=F ICtDFT=           0.
 Calling FoFJK, ICntrl=      2527 FMM=F ISym2X=0 I1Cent= 0 IOpClX= 0 NMat=1 NMatS=1 NMatT=0.
 FoFJK:  IHMeth= 1 ICntrl=    2527 DoSepK=F KAlg= 0 I1Cent=           0 FoldK=F
 IRaf=         0 NMat=       1 IRICut=       1 DoRegI=T DoRafI=F ISym2E= 0 IDoP0=0 IntGTp=1.
 FoFCou: FMM=F IPFlag=           0 FMFlag=      100000 FMFlg1=         800
         NFxFlg=           0 DoJE=F BraDBF=F KetDBF=F FulRan=T
         wScrn=  0.000000 ICntrl=      2527 IOpCl=  0 I1Cent=           0 NGrid=           0
         NMat0=    1 NMatS0=      1 NMatT0=    0 NMatD0=    1 NMtDS0=    0 NMtDT0=    0
 Symmetry not used in FoFCou.
 Leave Link  703 at Mon Feb 22 21:19:22 2021, MaxMem=   104857600 cpu:              62.2 elap:               2.0
 (Enter /sw/arch/RedHatEnterpriseServer7/EB_production/2019/software/Gaussian/g16.c01/l716.exe)
 Dipole        = 9.03941006D-01-9.75413000D-01-4.73622719D-01
 ***** Axes restored to original set *****
 -------------------------------------------------------------------
 Center     Atomic                   Forces (Hartrees/Bohr)
 Number     Number              X              Y              Z
 -------------------------------------------------------------------
      1        8           0.002159023    0.005379635   -0.000220069
      2        6           0.018227496   -0.001356976   -0.001112618
      3        8          -0.021702280   -0.008943527   -0.007016988
      4        6           0.004612987    0.025953124   -0.007014741
      5        6          -0.011283283    0.004926517    0.015870112
      6        8           0.008289904   -0.001146955    0.000611479
      7        6          -0.000876308   -0.019617351    0.004995649
      8        8          -0.000795845    0.001478826   -0.009801100
      9        6           0.018717923   -0.001803426    0.001928822
     10        8          -0.000333411    0.006469697   -0.002444694
     11        1           0.001363675    0.003536142   -0.002529885
     12        1          -0.007669264   -0.011259963   -0.001915058
     13        1           0.013237038    0.001115642   -0.000088257
     14        1          -0.012869389   -0.005202455    0.002914167
     15        1          -0.010024433    0.000542975   -0.003598181
     16        1           0.004359480    0.004880733   -0.004214279
     17        1           0.002397829    0.001860277    0.010967214
     18        1          -0.004357538    0.002516449   -0.002142462
     19        1          -0.002787389   -0.010682685    0.000098194
     20        1          -0.000666217    0.001353323    0.004712695
 -------------------------------------------------------------------
 Cartesian Forces:  Max     0.025953124 RMS     0.008336271
 Leave Link  716 at Mon Feb 22 21:19:22 2021, MaxMem=   104857600 cpu:               1.3 elap:               0.1
 (Enter /sw/arch/RedHatEnterpriseServer7/EB_production/2019/software/Gaussian/g16.c01/l103.exe)

 GradGradGradGradGradGradGradGradGradGradGradGradGradGradGradGradGradGrad
 Berny optimization.
 FormGI is forming the generalized inverse of G from B-inverse, IUseBI=4.
 Internal  Forces:  Max     0.016219046 RMS     0.005543148
 Search for a local minimum.
 Step number   1 out of a maximum of  119
 All quantities printed in internal units (Hartrees-Bohrs-Radians)
 RMS Force = .55431D-02 SwitMx=.10000D-02 MixMth= 1
 Mixed Optimization -- RFO/linear search
 Second derivative matrix not updated -- first step.
 ITU=  0
     Eigenvalues ---    0.00448   0.00491   0.01183   0.01326   0.01336
     Eigenvalues ---    0.01344   0.01375   0.02763   0.03116   0.04458
     Eigenvalues ---    0.04567   0.04742   0.04967   0.05163   0.05531
     Eigenvalues ---    0.06233   0.06653   0.06973   0.07116   0.07303
     Eigenvalues ---    0.09215   0.10268   0.10818   0.11585   0.12679
     Eigenvalues ---    0.16000   0.16000   0.16000   0.16000   0.16302
     Eigenvalues ---    0.17037   0.17467   0.19127   0.20760   0.26086
     Eigenvalues ---    0.26615   0.26661   0.27437   0.34231   0.34305
     Eigenvalues ---    0.34308   0.34377   0.34492   0.34704   0.37516
     Eigenvalues ---    0.37750   0.41326   0.41442   0.41529   0.41870
     Eigenvalues ---    0.51235   0.51308   0.51383   0.51423
 RFO step:  Lambda=-2.05327881D-02 EMin= 4.47586076D-03
 Linear search not attempted -- first point.
 Iteration  1 RMS(Cart)=  0.05929812 RMS(Int)=  0.00228162
 Iteration  2 RMS(Cart)=  0.00242927 RMS(Int)=  0.00077596
 Iteration  3 RMS(Cart)=  0.00000283 RMS(Int)=  0.00077596
 Iteration  4 RMS(Cart)=  0.00000000 RMS(Int)=  0.00077596
 ITry= 1 IFail=0 DXMaxC= 2.36D-01 DCOld= 1.00D+10 DXMaxT= 3.00D-01 DXLimC= 3.00D+00 Rises=F
 Variable       Old X    -DE/DX   Delta X   Delta X   Delta X     New X
                                 (Linear)    (Quad)   (Total)
    R1        2.69089   0.00502   0.00000   0.01144   0.01144   2.70232
    R2        1.85195  -0.00376   0.00000  -0.00704  -0.00704   1.84490
    R3        2.72935  -0.00944   0.00000  -0.02540  -0.02523   2.70412
    R4        2.93586  -0.01037   0.00000  -0.03556  -0.03542   2.90043
    R5        2.06942   0.00373   0.00000   0.01028   0.01028   2.07970
    R6        2.73041  -0.00051   0.00000  -0.00311  -0.00290   2.72751
    R7        2.93211  -0.00765   0.00000  -0.02594  -0.02606   2.90605
    R8        2.06158   0.00863   0.00000   0.02347   0.02347   2.08506
    R9        2.06508   0.00326   0.00000   0.00891   0.00891   2.07399
   R10        2.69528   0.01198   0.00000   0.02748   0.02748   2.72276
   R11        2.93943  -0.01622   0.00000  -0.05212  -0.05231   2.88712
   R12        2.06818   0.00756   0.00000   0.02079   0.02079   2.08897
   R13        1.85268  -0.00521   0.00000  -0.00976  -0.00976   1.84292
   R14        2.69639   0.01217   0.00000   0.02799   0.02799   2.72438
   R15        2.93996  -0.01371   0.00000  -0.04433  -0.04452   2.89544
   R16        2.06698   0.00741   0.00000   0.02033   0.02033   2.08731
   R17        1.85156  -0.00418   0.00000  -0.00781  -0.00781   1.84375
   R18        2.69790   0.00769   0.00000   0.01772   0.01772   2.71562
   R19        2.06813   0.00630   0.00000   0.01732   0.01732   2.08545
   R20        1.85339  -0.00439   0.00000  -0.00824  -0.00824   1.84515
    A1        1.83249   0.00404   0.00000   0.02235   0.02235   1.85484
    A2        1.89235   0.01177   0.00000   0.07824   0.07817   1.97052
    A3        1.92049  -0.01189   0.00000  -0.03269  -0.03258   1.88790
    A4        1.86981   0.00566   0.00000   0.05402   0.05485   1.92466
    A5        1.93988   0.00115   0.00000  -0.01005  -0.01001   1.92986
    A6        1.92042  -0.00897   0.00000  -0.08256  -0.08409   1.83634
    A7        1.91942   0.00246   0.00000  -0.00394  -0.00521   1.91421
    A8        1.98371  -0.00850   0.00000  -0.03896  -0.03868   1.94502
    A9        1.95098   0.00124   0.00000  -0.00570  -0.00715   1.94383
   A10        1.82345   0.00946   0.00000   0.10102   0.10141   1.92486
   A11        1.98405  -0.01169   0.00000  -0.11130  -0.11166   1.87240
   A12        1.90877  -0.00541   0.00000  -0.00996  -0.01097   1.89779
   A13        1.92280   0.00511   0.00000   0.01349   0.01100   1.93380
   A14        1.86825   0.00144   0.00000   0.02055   0.02230   1.89056
   A15        1.91301   0.00562   0.00000   0.03351   0.03262   1.94563
   A16        1.93210   0.00055   0.00000  -0.01125  -0.01108   1.92103
   A17        1.90831  -0.00053   0.00000   0.01011   0.00877   1.91709
   A18        1.92021  -0.00750   0.00000  -0.05024  -0.04982   1.87039
   A19        1.87784   0.00390   0.00000   0.05084   0.04941   1.92725
   A20        1.91152  -0.00193   0.00000  -0.03100  -0.03065   1.88087
   A21        1.83251   0.01013   0.00000   0.05613   0.05613   1.88863
   A22        1.91556   0.00632   0.00000   0.02894   0.02776   1.94332
   A23        1.95265  -0.00324   0.00000  -0.02183  -0.02229   1.93036
   A24        1.90967  -0.00060   0.00000  -0.00024  -0.00100   1.90867
   A25        1.90767  -0.00658   0.00000  -0.04711  -0.04651   1.86117
   A26        1.86883   0.00311   0.00000   0.05165   0.05106   1.91989
   A27        1.90754   0.00126   0.00000  -0.00828  -0.00792   1.89962
   A28        1.83047   0.00648   0.00000   0.03591   0.03591   1.86637
   A29        1.92799   0.00462   0.00000   0.01627   0.01624   1.94424
   A30        1.91617  -0.00569   0.00000  -0.02242  -0.02275   1.89342
   A31        1.90818  -0.00212   0.00000  -0.03306  -0.03296   1.87522
   A32        1.91623   0.00286   0.00000   0.02519   0.02539   1.94162
   A33        1.91781  -0.00384   0.00000  -0.02829  -0.02874   1.88907
   A34        1.87674   0.00409   0.00000   0.04249   0.04244   1.91918
   A35        1.83220   0.00419   0.00000   0.02322   0.02322   1.85542
    D1       -1.02527   0.00009   0.00000  -0.00967  -0.01078  -1.03605
    D2        3.13298  -0.00146   0.00000  -0.02680  -0.02723   3.10574
    D3        1.04676  -0.00112   0.00000  -0.03580  -0.03427   1.01249
    D4       -1.06055   0.00483   0.00000   0.01128   0.01001  -1.05055
    D5        1.05246  -0.00152   0.00000   0.01554   0.01479   1.06725
    D6       -3.10029  -0.00377   0.00000  -0.05275  -0.05014   3.13276
    D7        1.14938   0.00456   0.00000   0.04499   0.04493   1.19430
    D8       -0.96637   0.00172   0.00000   0.01770   0.01781  -0.94856
    D9       -3.02130   0.00135   0.00000  -0.00119  -0.00138  -3.02267
   D10       -0.94703  -0.00308   0.00000  -0.02493  -0.02465  -0.97168
   D11       -3.06278  -0.00592   0.00000  -0.05222  -0.05176  -3.11454
   D12        1.16548  -0.00629   0.00000  -0.07111  -0.07095   1.09453
   D13       -3.07806   0.00581   0.00000   0.08898   0.08898  -2.98908
   D14        1.08938   0.00297   0.00000   0.06169   0.06187   1.15124
   D15       -0.96555   0.00259   0.00000   0.04280   0.04268  -0.92287
   D16       -1.03965  -0.00186   0.00000  -0.04498  -0.04409  -1.08375
   D17        1.02264  -0.00207   0.00000   0.00003   0.00238   1.02502
   D18        3.05320  -0.00041   0.00000   0.03087   0.02733   3.08053
   D19        3.03918   0.00130   0.00000   0.01480   0.01448   3.05366
   D20        0.91788   0.00661   0.00000   0.06279   0.06277   0.98065
   D21       -1.18952   0.00900   0.00000   0.10188   0.10195  -1.08757
   D22        1.02856  -0.00768   0.00000  -0.09926  -0.09945   0.92910
   D23       -1.09275  -0.00238   0.00000  -0.05128  -0.05116  -1.14391
   D24        3.08304   0.00002   0.00000  -0.01219  -0.01197   3.07107
   D25       -1.02029  -0.00921   0.00000  -0.12622  -0.12650  -1.14679
   D26        3.14159  -0.00390   0.00000  -0.07824  -0.07821   3.06339
   D27        1.03420  -0.00151   0.00000  -0.03915  -0.03902   0.99517
   D28        1.03946   0.00288   0.00000   0.06141   0.06245   1.10191
   D29       -3.11528   0.00237   0.00000   0.03671   0.03701  -3.07827
   D30       -1.03396  -0.00189   0.00000   0.00107  -0.00026  -1.03422
   D31       -2.97190   0.00510   0.00000   0.02192   0.02241  -2.94950
   D32       -0.85113  -0.00104   0.00000  -0.03236  -0.03228  -0.88341
   D33        1.26543  -0.00199   0.00000  -0.05730  -0.05706   1.20837
   D34        1.19422   0.00267   0.00000   0.02062   0.02090   1.21512
   D35       -2.96819  -0.00347   0.00000  -0.03366  -0.03380  -3.00198
   D36       -0.85163  -0.00442   0.00000  -0.05860  -0.05857  -0.91020
   D37       -0.86641   0.00354   0.00000   0.00721   0.00726  -0.85916
   D38        1.25436  -0.00260   0.00000  -0.04707  -0.04743   1.20693
   D39       -2.91227  -0.00355   0.00000  -0.07201  -0.07221  -2.98447
   D40       -1.01580  -0.00321   0.00000  -0.03651  -0.03760  -1.05340
   D41        3.11986   0.00104   0.00000   0.00276   0.00272   3.12258
   D42        1.05544   0.00133   0.00000   0.00883   0.00996   1.06540
   D43        0.86650   0.00005   0.00000   0.02188   0.02169   0.88820
   D44        2.98222  -0.00219   0.00000   0.02091   0.02094   3.00316
   D45       -1.24027   0.00222   0.00000   0.07097   0.07059  -1.16968
   D46        2.99182   0.00136   0.00000   0.01157   0.01186   3.00368
   D47       -1.17565  -0.00088   0.00000   0.01059   0.01111  -1.16454
   D48        0.88505   0.00353   0.00000   0.06065   0.06076   0.94580
   D49       -1.25129   0.00207   0.00000   0.04213   0.04227  -1.20902
   D50        0.86443  -0.00017   0.00000   0.04116   0.04152   0.90594
   D51        2.92513   0.00423   0.00000   0.09122   0.09116   3.01629
   D52       -3.13414   0.00233   0.00000   0.01381   0.01397  -3.12017
   D53        1.02624  -0.00159   0.00000  -0.00820  -0.00768   1.01857
   D54       -1.05976  -0.00100   0.00000  -0.01357  -0.01425  -1.07401
         Item               Value     Threshold  Converged?
 Maximum Force            0.016219     0.000450     NO 
 RMS     Force            0.005543     0.000300     NO 
 Maximum Displacement     0.235800     0.001800     NO 
 RMS     Displacement     0.059635     0.001200     NO 
 Predicted change in Energy=-1.237740D-02
 Lowest energy point so far.  Saving SCF results.
 GradGradGradGradGradGradGradGradGradGradGradGradGradGradGradGradGradGrad

 Leave Link  103 at Mon Feb 22 21:19:22 2021, MaxMem=   104857600 cpu:               1.1 elap:               0.1
 (Enter /sw/arch/RedHatEnterpriseServer7/EB_production/2019/software/Gaussian/g16.c01/l202.exe)
                          Input orientation:                          
 ---------------------------------------------------------------------
 Center     Atomic      Atomic             Coordinates (Angstroms)
 Number     Number       Type             X           Y           Z
 ---------------------------------------------------------------------
      1          8           0       -0.129446    0.985390    3.103676
      2          6           0       -1.016390    0.217100    2.286372
      3          8           0       -0.834665   -1.193814    2.441110
      4          6           0        0.504469   -1.595743    2.082792
      5          6           0        0.803473   -1.294409    0.604728
      6          8           0        2.175099   -1.586203    0.273872
      7          6           0        0.575494    0.188337    0.315495
      8          8           0        0.597422    0.456076   -1.100937
      9          6           0       -0.800017    0.631649    0.824497
     10          8           0       -0.956855    2.056781    0.727049
     11          1           0       -0.312897    0.724750    4.026462
     12          1           0       -2.061384    0.407033    2.574609
     13          1           0        1.243094   -1.066641    2.708809
     14          1           0        0.587402   -2.671120    2.285790
     15          1           0        0.119082   -1.873360   -0.042116
     16          1           0        2.321739   -2.542347    0.397822
     17          1           0        1.353434    0.784566    0.824781
     18          1           0        1.478271    0.191511   -1.426583
     19          1           0       -1.571733    0.125457    0.219436
     20          1           0       -0.832933    2.282485   -0.214802
 ---------------------------------------------------------------------
                    Distance matrix (angstroms):
                    1          2          3          4          5
     1  O    0.000000
     2  C    1.430009   0.000000
     3  O    2.384378   1.430960   0.000000
     4  C    2.847157   2.375049   1.443336   0.000000
     5  C    3.508926   2.902497   2.462907   1.537816   0.000000
     6  O    4.464505   4.181825   3.729553   2.462374   1.440821
     7  C    2.984324   2.533630   2.901229   2.512235   1.527798
     8  O    4.299684   3.759703   4.161623   3.788764   2.452744
     9  C    2.401968   1.534844   2.438637   2.871631   2.515786
    10  O    2.735112   2.412355   3.676860   4.161062   3.787372
    11  H    0.976280   1.944357   2.542926   3.135383   4.126929
    12  H    2.084896   1.100530   2.021231   3.291899   3.870755
    13  H    2.500123   2.632815   2.098789   1.103364   2.161550
    14  H    3.814823   3.303630   2.056412   1.097507   2.183573
    15  H    4.257960   3.328840   2.745510   2.177344   1.105434
    16  H    5.076897   4.724858   3.994553   2.652858   1.976181
    17  H    2.726284   2.841537   3.363670   2.822977   2.161716
    18  H    4.872191   4.473257   4.714641   4.056880   2.605673
    19  H    3.337442   2.142202   2.686927   3.277993   2.793935
    20  H    3.631755   3.248899   4.374760   4.701939   4.017913
                    6          7          8          9         10
     6  O    0.000000
     7  C    2.389448   0.000000
     8  O    2.924050   1.441681   0.000000
     9  C    3.751449   1.532201   2.385573   0.000000
    10  O    4.825540   2.451235   2.884366   1.437044   0.000000
    11  H    5.060885   3.853344   5.214508   3.240144   3.615953
    12  H    5.216720   3.479159   4.536661   2.168960   2.712034
    13  H    2.658476   2.783633   4.153279   3.257164   4.303825
    14  H    2.783099   3.472564   4.609705   3.868926   5.212240
    15  H    2.099884   2.141680   2.603111   2.805500   4.146717
    16  H    0.975232   3.242343   3.769628   4.472322   5.657698
    17  H    2.568886   1.104560   2.094720   2.158873   2.639227
    18  H    2.556830   1.962103   0.975672   3.232906   3.747960
    19  H    4.119647   2.150294   2.560845   1.103574   2.089439
    20  H    4.924815   2.578824   2.483328   1.951022   0.976413
                   11         12         13         14         15
    11  H    0.000000
    12  H    2.294783   0.000000
    13  H    2.714111   3.620676   0.000000
    14  H    3.920767   4.071181   1.784161   0.000000
    15  H    4.846659   4.099009   3.079250   2.504973   0.000000
    16  H    5.548176   5.713931   2.946497   2.566891   2.343670
    17  H    3.609847   3.855568   2.643615   3.829245   3.056093
    18  H    5.764401   5.346508   4.328939   4.771794   2.833344
    19  H    4.054290   2.421959   3.942248   4.092985   2.631071
    20  H    4.548109   3.578718   4.906529   5.727872   4.266990
                   16         17         18         19         20
    16  H    0.000000
    17  H    3.491168   0.000000
    18  H    3.393209   2.331510   0.000000
    19  H    4.723148   3.058998   3.466449   0.000000
    20  H    5.797091   2.846875   3.343987   2.321026   0.000000
 Stoichiometry    C5H10O5
 Framework group  C1[X(C5H10O5)]
 Deg. of freedom    54
 Full point group                 C1      NOp   1
 RotChk:  IX=0 Diff= 3.81D-02
 Largest Abelian subgroup         C1      NOp   1
 Largest concise Abelian subgroup C1      NOp   1
                         Standard orientation:                         
 ---------------------------------------------------------------------
 Center     Atomic      Atomic             Coordinates (Angstroms)
 Number     Number       Type             X           Y           Z
 ---------------------------------------------------------------------
      1          8           0       -1.821980   -0.777717    1.086118
      2          6           0       -1.499210   -0.604847   -0.296220
      3          8           0       -0.651251   -1.639761   -0.803731
      4          6           0        0.603919   -1.689451   -0.092888
      5          6           0        1.394398   -0.380885   -0.259244
      6          8           0        2.591612   -0.382255    0.542406
      7          6           0        0.546929    0.805234    0.198016
      8          8           0        1.151845    2.058503   -0.178594
      9          6           0       -0.834215    0.768202   -0.464335
     10          8           0       -1.705082    1.767296    0.091089
     11          1           0       -2.271532   -1.641499    1.156155
     12          1           0       -2.411648   -0.652267   -0.909714
     13          1           0        0.427948   -1.862934    0.982449
     14          1           0        1.170805   -2.540537   -0.491406
     15          1           0        1.643953   -0.226193   -1.324972
     16          1           0        3.170825   -1.099309    0.223936
     17          1           0        0.418094    0.762217    1.294193
     18          1           0        2.024960    2.094414    0.255361
     19          1           0       -0.703143    0.942020   -1.546224
     20          1           0       -1.262341    2.626041   -0.050051
 ---------------------------------------------------------------------
 Rotational constants (GHZ):           1.6615462           1.3212742           0.8583415
 Leave Link  202 at Mon Feb 22 21:19:23 2021, MaxMem=   104857600 cpu:               1.1 elap:               0.1
 (Enter /sw/arch/RedHatEnterpriseServer7/EB_production/2019/software/Gaussian/g16.c01/l301.exe)
 Standard basis: TZVP (5D, 7F)
 Ernie: Thresh=  0.10000D-02 Tol=  0.10000D-05 Strict=F.
 There are   260 symmetry adapted cartesian basis functions of A   symmetry.
 There are   250 symmetry adapted basis functions of A   symmetry.
   250 basis functions,   430 primitive gaussians,   260 cartesian basis functions
    40 alpha electrons       40 beta electrons
       nuclear repulsion energy       617.6270934202 Hartrees.
 IExCor=  404 DFT=T Ex=B Corr=P86 ExCW=0 ScaHFX=  0.000000
[...]
   13   H     13    1.3000  1.000      0.480702     -1.895096      0.990596
   14   H     14    1.3000  1.000      1.158445     -2.544445     -0.535446
   15   H     15    1.3000  1.000      1.612616     -0.234087     -1.346218
   16   H     16    1.3000  1.000      3.281757     -0.864314      0.015218
   17   H     17    1.3000  1.000      0.387364      0.681805      1.304656
   18   H     18    1.3000  1.000      1.999699      2.069662      0.343447
   19   H     19    1.3000  1.000     -0.660001      0.853007     -1.568981
   20   H     20    1.3000  1.000     -1.168223      2.620764     -0.069707
 ------------------------------------------------------------------------------
 One-electron integrals computed using PRISM.
 PrsmSu:  requested number of processors reduced to:  28 ShMem   1 Linda.
 NBasis=   250 RedAO= T EigKep=  7.43D-05  NBF=   250
 NBsUse=   250 1.00D-06 EigRej= -1.00D+00 NBFU=   250
 Initial guess from the checkpoint file:  "SRBFZHDQGSBBOR-SKNVOMKLSA-N.chk"
 B after Tr=     0.000000    0.000000   -0.000000
         Rot=    1.000000   -0.000000   -0.000000   -0.000000 Ang=   0.00 deg.
 Requested convergence on RMS density matrix=1.00D-08 within 128 cycles.
 Requested convergence on MAX density matrix=1.00D-06.
 Requested convergence on             energy=1.00D-06.
 No special actions if energy rises.
 Inv3:  Mode=1 IEnd=     4531323.
 Iteration    1 A*A^-1 deviation from unit magnitude is 3.33D-15 for    202.
 Iteration    1 A*A^-1 deviation from orthogonality  is 3.11D-15 for    940    633.
 Iteration    1 A^-1*A deviation from unit magnitude is 3.11D-15 for    202.
 Iteration    1 A^-1*A deviation from orthogonality  is 3.55D-15 for   1118    968.
 Error on nuclear    polarization charges =  0.01396
 Error on electronic polarization charges = -0.04088
 SCF Done:  E(RB-P86) =  -572.893591154     A.U. after   11 cycles
            NFock= 11  Conv=0.35D-08     -V/T= 2.0043
 --------------------------------------------------------------------
 Variational C-PCM results
 =========================
 <psi(f)|   H    |psi(f)>                     (a.u.) =    -572.862400
 <psi(f)|H+V(f)/2|psi(f)>                     (a.u.) =    -572.893591
 Total free energy in solution:
 - with all non electrostatic terms           (a.u.) =    -572.882736
 --------------------------------------------------------------------
 (Polarized solute)-Solvent               (kcal/mol) =     -19.57
 --------------------------------------------------------------------
 Cavitation energy                        (kcal/mol) =      22.23
 Dispersion energy                        (kcal/mol) =     -16.81
 Repulsion energy                         (kcal/mol) =       1.39
 Total non electrostatic                  (kcal/mol) =       6.81
 --------------------------------------------------------------------
 Partition over spheres:
 Sphere  on Atom  Surface  Charge   GEl     GCav    GDR
    1      O1      13.80   0.142   -2.58    1.71   -1.03
    2      C2       6.63  -0.025   -0.25    0.78   -0.17
    3      O3      10.95   0.140   -1.31    1.36   -1.10
    4      C4      10.99  -0.010   -0.16    1.29   -0.64
    5      C5       4.83  -0.022   -0.38    0.57   -0.06
    6      O6      14.84   0.153   -1.27    1.84   -1.22
    7      C7       3.73  -0.008   -0.04    0.44   -0.04
    8      O8      14.70   0.155   -1.60    1.83   -1.31
    9      C9       4.20  -0.011   -0.07    0.49   -0.11
   10      O10     15.71   0.182   -3.75    1.95   -1.45
   11      H11      8.54  -0.132   -2.09    1.21   -1.02
   12      H12      6.56  -0.048   -0.29    0.93   -0.95
   13      H13      6.15  -0.027   -0.09    0.87   -0.61
   14      H14      6.51  -0.042   -0.49    0.92   -0.86
   15      H15      6.60  -0.037   -0.39    0.93   -0.84
   16      H16      8.59  -0.132   -2.90    1.21   -0.99
   17      H17      6.28  -0.032    0.07    0.89   -0.67
   18      H18      7.65  -0.109   -1.25    1.08   -0.80
   19      H19      6.62  -0.037   -0.18    0.93   -0.82
   20      H20      7.12  -0.100   -0.56    1.00   -0.73
 --------------------------------------------------------------------
 - cavitation energy not included in the total energy.
 - dispersion energy not included in the total energy.
 - repulsion  energy not included in the total energy.
 After PCM corrections, the energy is  -572.893591154     a.u.
 --------------------------------------------------------------------
 Writing COSMO formatted file "SRBFZHDQGSBBOR-SKNVOMKLSA-N.cosmo"
 Recomputed dielectric energy= -0.031320 old= -0.031192 diff=-1.28D-04

 **********************************************************************

            Population analysis using the SCF Density.

 **********************************************************************

 Orbital symmetries:
       Occupied  (A) (A) (A) (A) (A) (A) (A) (A) (A) (A) (A) (A)
                 (A) (A) (A) (A) (A) (A) (A) (A) (A) (A) (A) (A)
                 (A) (A) (A) (A) (A) (A) (A) (A) (A) (A) (A) (A)
                 (A) (A) (A) (A)
       Virtual   (A) (A) (A) (A) (A) (A) (A) (A) (A) (A) (A) (A)
                 (A) (A) (A) (A) (A) (A) (A) (A) (A) (A) (A) (A)
                 (A) (A) (A) (A) (A) (A) (A) (A) (A) (A) (A) (A)
                 (A) (A) (A) (A) (A) (A) (A) (A) (A) (A) (A) (A)
                 (A) (A) (A) (A) (A) (A) (A) (A) (A) (A) (A) (A)
                 (A) (A) (A) (A) (A) (A) (A) (A) (A) (A) (A) (A)
                 (A) (A) (A) (A) (A) (A) (A) (A) (A) (A) (A) (A)
                 (A) (A) (A) (A) (A) (A) (A) (A) (A) (A) (A) (A)
                 (A) (A) (A) (A) (A) (A) (A) (A) (A) (A) (A) (A)
                 (A) (A) (A) (A) (A) (A) (A) (A) (A) (A) (A) (A)
                 (A) (A) (A) (A) (A) (A) (A) (A) (A) (A) (A) (A)
                 (A) (A) (A) (A) (A) (A) (A) (A) (A) (A) (A) (A)
                 (A) (A) (A) (A) (A) (A) (A) (A) (A) (A) (A) (A)
                 (A) (A) (A) (A) (A) (A) (A) (A) (A) (A) (A) (A)
                 (A) (A) (A) (A) (A) (A) (A) (A) (A) (A) (A) (A)
                 (A) (A) (A) (A) (A) (A) (A) (A) (A) (A) (A) (A)
                 (A) (A) (A) (A) (A) (A) (A) (A) (A) (A) (A) (A)
                 (A) (A) (A) (A) (A) (A)
 The electronic state is 1-A.
 Alpha  occ. eigenvalues --  -18.79204 -18.78663 -18.78282 -18.78108 -18.77966
 Alpha  occ. eigenvalues --  -10.00318  -9.95825  -9.95532  -9.95458  -9.94576
 Alpha  occ. eigenvalues --   -0.99154  -0.95938  -0.94745  -0.93185  -0.92708
 Alpha  occ. eigenvalues --   -0.72005  -0.69186  -0.59558  -0.58359  -0.53024
 Alpha  occ. eigenvalues --   -0.49979  -0.48887  -0.47820  -0.45245  -0.43819
 Alpha  occ. eigenvalues --   -0.41882  -0.40474  -0.38630  -0.37201  -0.36566
 Alpha  occ. eigenvalues --   -0.34950  -0.33233  -0.31983  -0.30148  -0.28232
 Alpha  occ. eigenvalues --   -0.27056  -0.25678  -0.24753  -0.24220  -0.23012
 Alpha virt. eigenvalues --    0.00153   0.02040   0.02892   0.04304   0.05294
 Alpha virt. eigenvalues --    0.06848   0.08593   0.08750   0.09871   0.10654
 Alpha virt. eigenvalues --    0.11653   0.12797   0.13690   0.14037   0.14884
 Alpha virt. eigenvalues --    0.16161   0.16878   0.18594   0.20108   0.21048
 Alpha virt. eigenvalues --    0.23824   0.25856   0.26342   0.27413   0.28070
 Alpha virt. eigenvalues --    0.29370   0.29839   0.31035   0.31678   0.32260
 Alpha virt. eigenvalues --    0.33248   0.33845   0.34454   0.36348   0.36575
 Alpha virt. eigenvalues --    0.37710   0.38422   0.39357   0.39929   0.41584
 Alpha virt. eigenvalues --    0.41685   0.42045   0.43798   0.44816   0.45988
 Alpha virt. eigenvalues --    0.47008   0.47735   0.48986   0.50264   0.53121
 Alpha virt. eigenvalues --    0.53587   0.55020   0.55969   0.56301   0.58424
 Alpha virt. eigenvalues --    0.59203   0.61997   0.64029   0.65337   0.69072
 Alpha virt. eigenvalues --    0.70480   0.71600   0.76564   0.77292   0.81706
 Alpha virt. eigenvalues --    0.84205   0.87709   0.89598   0.92470   0.94402
 Alpha virt. eigenvalues --    1.09770   1.14226   1.20129   1.20955   1.23062
 Alpha virt. eigenvalues --    1.23975   1.24590   1.25303   1.27801   1.29231
 Alpha virt. eigenvalues --    1.29890   1.31713   1.32138   1.33370   1.34509
 Alpha virt. eigenvalues --    1.35564   1.37651   1.40099   1.41602   1.42137
 Alpha virt. eigenvalues --    1.42864   1.44958   1.46635   1.49691   1.51336
 Alpha virt. eigenvalues --    1.52147   1.54328   1.55608   1.58684   1.62093
 Alpha virt. eigenvalues --    1.64072   1.64349   1.66944   1.68936   1.70704
 Alpha virt. eigenvalues --    1.72538   1.75046   1.76428   1.79475   1.82305
 Alpha virt. eigenvalues --    1.84770   1.88063   1.88928   1.90290   1.90591
 Alpha virt. eigenvalues --    1.92275   1.94399   1.95157   1.96289   1.97417
 Alpha virt. eigenvalues --    2.00962   2.01226   2.03220   2.05282   2.06740
 Alpha virt. eigenvalues --    2.07063   2.10304   2.13482   2.18284   2.23425
 Alpha virt. eigenvalues --    2.25738   2.26773   2.27829   2.32375   2.34773
 Alpha virt. eigenvalues --    2.38674   2.42210   2.44326   2.45612   2.48220
 Alpha virt. eigenvalues --    2.50140   2.53811   2.55673   2.58478   2.59129
 Alpha virt. eigenvalues --    2.59918   2.61464   2.62351   2.62828   2.63697
 Alpha virt. eigenvalues --    2.65978   2.66420   2.67426   2.70003   2.72614
 Alpha virt. eigenvalues --    2.74475   2.78650   2.81208   2.82697   2.84136
 Alpha virt. eigenvalues --    2.85282   2.87189   2.87984   2.88600   2.89259
 Alpha virt. eigenvalues --    2.90674   2.93301   2.94208   2.95866   2.97478
 Alpha virt. eigenvalues --    2.97996   3.01608   3.02616   3.04120   3.05669
 Alpha virt. eigenvalues --    3.09213   3.10558   3.10972   3.12824   3.15300
 Alpha virt. eigenvalues --    3.18551   3.19638   3.24163   3.24838   3.30556
 Alpha virt. eigenvalues --    3.32579   3.38293   3.38377   3.42821   3.46446
 Alpha virt. eigenvalues --    3.78157   3.86806   3.91372   3.92320   3.95934
 Alpha virt. eigenvalues --    4.00846   4.16657   4.17878   4.18863   4.19410
 Alpha virt. eigenvalues --   21.54383  21.65743  21.76301  21.78714  21.88838
 Alpha virt. eigenvalues --   43.13406  43.19093  43.22808  43.26296  43.38096
          Condensed to atoms (all electrons):
               1          2          3          4          5          6
     1  O    7.975841   0.277067  -0.082724  -0.032698   0.016127  -0.000018
     2  C    0.277067   5.617971   0.195797  -0.244323   0.064249  -0.002623
     3  O   -0.082724   0.195797   8.080430   0.223859  -0.044581   0.006054
     4  C   -0.032698  -0.244323   0.223859   5.610172  -0.045804  -0.064112
     5  C    0.016127   0.064249  -0.044581  -0.045804   5.650100   0.292068
     6  O   -0.000018  -0.002623   0.006054  -0.064112   0.292068   7.977186
     7  C   -0.047695   0.100876  -0.033369  -0.101078  -0.016979  -0.115550
     8  O   -0.000218   0.014291  -0.000303   0.019728  -0.038893  -0.001292
     9  C   -0.054382  -0.215922   0.017802   0.112824  -0.051495   0.021836
    10  O    0.006996  -0.075871   0.004590  -0.001340   0.019338  -0.000147
    11  H    0.294406  -0.018355   0.004617  -0.001510   0.001236  -0.000030
    12  H   -0.052527   0.400158  -0.051257   0.005838  -0.001309   0.000046
    13  H    0.031363  -0.014562  -0.045417   0.368801  -0.029763   0.012354
    14  H    0.000174   0.013209  -0.028748   0.358460  -0.019840   0.003116
    15  H    0.000955  -0.003187   0.006490  -0.069220   0.427094  -0.050238
    16  H   -0.000005   0.000202   0.000112  -0.000205  -0.033388   0.307090
    17  H    0.022641  -0.008148  -0.000046  -0.014988  -0.037266   0.002330
    18  H    0.000018  -0.002235   0.000009   0.004284  -0.006739   0.017322
    19  H    0.006097  -0.063084  -0.001113   0.003364  -0.012385  -0.000782
    20  H   -0.000013   0.015513  -0.000245  -0.000711   0.003028  -0.000049
               7          8          9         10         11         12
     1  O   -0.047695  -0.000218  -0.054382   0.006996   0.294406  -0.052527
     2  C    0.100876   0.014291  -0.215922  -0.075871  -0.018355   0.400158
     3  O   -0.033369  -0.000303   0.017802   0.004590   0.004617  -0.051257
     4  C   -0.101078   0.019728   0.112824  -0.001340  -0.001510   0.005838
     5  C   -0.016979  -0.038893  -0.051495   0.019338   0.001236  -0.001309
     6  O   -0.115550  -0.001292   0.021836  -0.000147  -0.000030   0.000046
     7  C    6.064414   0.249696  -0.213517  -0.039398   0.000794   0.012626
     8  O    0.249696   7.986868  -0.092254  -0.003804   0.000006  -0.000142
     9  C   -0.213517  -0.092254   6.035541   0.264948   0.008786  -0.058859
    10  O   -0.039398  -0.003804   0.264948   7.955361  -0.000400   0.004310
    11  H    0.000794   0.000006   0.008786  -0.000400   0.406617  -0.011686
    12  H    0.012626  -0.000142  -0.058859   0.004310  -0.011686   0.576456
    13  H   -0.029773  -0.000366  -0.004770  -0.000012   0.000330   0.000763
    14  H    0.017715  -0.000489  -0.004844   0.000049  -0.000200  -0.000085
    15  H   -0.064986   0.002871  -0.011119  -0.000526   0.000058  -0.000385
    16  H    0.014477  -0.000473  -0.001467   0.000020  -0.000003  -0.000006
    17  H    0.365534  -0.058416  -0.067796   0.004719  -0.000403   0.000448
    18  H   -0.052882   0.310638   0.023732  -0.000425  -0.000004   0.000032
    19  H   -0.037264   0.000678   0.389069  -0.052373  -0.000338  -0.009526
    20  H    0.002619   0.019676  -0.060196   0.309395   0.000092  -0.000952
              13         14         15         16         17         18
     1  O    0.031363   0.000174   0.000955  -0.000005   0.022641   0.000018
     2  C   -0.014562   0.013209  -0.003187   0.000202  -0.008148  -0.002235
     3  O   -0.045417  -0.028748   0.006490   0.000112  -0.000046   0.000009
     4  C    0.368801   0.358460  -0.069220  -0.000205  -0.014988   0.004284
     5  C   -0.029763  -0.019840   0.427094  -0.033388  -0.037266  -0.006739
     6  O    0.012354   0.003116  -0.050238   0.307090   0.002330   0.017322
     7  C   -0.029773   0.017715  -0.064986   0.014477   0.365534  -0.052882
     8  O   -0.000366  -0.000489   0.002871  -0.000473  -0.058416   0.310638
     9  C   -0.004770  -0.004844  -0.011119  -0.001467  -0.067796   0.023732
    10  O   -0.000012   0.000049  -0.000526   0.000020   0.004719  -0.000425
    11  H    0.000330  -0.000200   0.000058  -0.000003  -0.000403  -0.000004
    12  H    0.000763  -0.000085  -0.000385  -0.000006   0.000448   0.000032
    13  H    0.583122  -0.031904   0.012159  -0.001080   0.007460  -0.000026
    14  H   -0.031904   0.529011  -0.012413   0.003296  -0.000451  -0.000074
    15  H    0.012159  -0.012413   0.589783  -0.010104   0.013509  -0.002556
    16  H   -0.001080   0.003296  -0.010104   0.399214  -0.000804  -0.000689
    17  H    0.007460  -0.000451   0.013509  -0.000804   0.605277  -0.007173
    18  H   -0.000026  -0.000074  -0.002556  -0.000689  -0.007173   0.404691
    19  H    0.000582   0.000149   0.011034   0.000022   0.015986  -0.000970
    20  H   -0.000018   0.000002  -0.000043   0.000005  -0.004778  -0.000680
              19         20
     1  O    0.006097  -0.000013
     2  C   -0.063084   0.015513
     3  O   -0.001113  -0.000245
     4  C    0.003364  -0.000711
     5  C   -0.012385   0.003028
     6  O   -0.000782  -0.000049
     7  C   -0.037264   0.002619
     8  O    0.000678   0.019676
     9  C    0.389069  -0.060196
    10  O   -0.052373   0.309395
    11  H   -0.000338   0.000092
    12  H   -0.009526  -0.000952
    13  H    0.000582  -0.000018
    14  H    0.000149   0.000002
    15  H    0.011034  -0.000043
    16  H    0.000022   0.000005
    17  H    0.015986  -0.004778
    18  H   -0.000970  -0.000680
    19  H    0.592292  -0.007659
    20  H   -0.007659   0.416116
 Mulliken charges:
               1
     1  O   -0.361404
     2  C   -0.051023
     3  O   -0.251960
     4  C   -0.131341
     5  C   -0.134796
     6  O   -0.404561
     7  C   -0.076261
     8  O   -0.407803
     9  C   -0.037915
    10  O   -0.395429
    11  H    0.315988
    12  H    0.186059
    13  H    0.140757
    14  H    0.173868
    15  H    0.160825
    16  H    0.323787
    17  H    0.162364
    18  H    0.313727
    19  H    0.166222
    20  H    0.308897
 Sum of Mulliken charges =  -0.00000
 Mulliken charges with hydrogens summed into heavy atoms:
               1
     1  O   -0.045417
     2  C    0.135036
     3  O   -0.251960
     4  C    0.183283
     5  C    0.026029
     6  O   -0.080775
     7  C    0.086104
     8  O   -0.094076
     9  C    0.128308
    10  O   -0.086532
 Electronic spatial extent (au):  <R**2>=           1384.4761
 Charge=             -0.0000 electrons
 Dipole moment (field-independent basis, Debye):
    X=              2.8730    Y=             -2.4898    Z=             -1.2720  Tot=              4.0089
 Quadrupole moment (field-independent basis, Debye-Ang):
   XX=            -51.7025   YY=            -56.9872   ZZ=            -62.2137
   XY=              2.4950   XZ=             -2.2229   YZ=             -1.4349
 Traceless Quadrupole moment (field-independent basis, Debye-Ang):
   XX=              5.2653   YY=             -0.0194   ZZ=             -5.2459
   XY=              2.4950   XZ=             -2.2229   YZ=             -1.4349
 Octapole moment (field-independent basis, Debye-Ang**2):
  XXX=             27.8537  YYY=              5.1041  ZZZ=              0.6322  XYY=              5.2482
  XXY=            -27.5337  XXZ=             -9.0311  XZZ=             -1.0852  YZZ=              1.5453
  YYZ=             11.7785  XYZ=             14.4846
 Hexadecapole moment (field-independent basis, Debye-Ang**3):
 XXXX=           -684.3920 YYYY=           -615.9089 ZZZZ=           -183.2549 XXXY=             40.7323
 XXXZ=            -33.1082 YYYX=             -6.3842 YYYZ=             -6.9429 ZZZX=             -5.7585
 ZZZY=             -6.7383 XXYY=           -204.8320 XXZZ=           -171.5777 YYZZ=           -141.4604
 XXYZ=             -0.3714 YYXZ=            -10.7120 ZZXY=              8.0609
 N-N= 6.182615860716D+02 E-N=-2.582586719326D+03  KE= 5.704495248154D+02
 Unable to Open any file for archive entry.
 1\1\GINC-TCN1656\SP\RBP86\TZVP\C5H10O5\ELENAA\22-Feb-2021\0\\# BP86/TZ
 VP SCRF=COSMORS geom=CHECKPOINT guess=CHECKPOINT\\COSMO-file for #SRBF
 ZHDQGSBBOR-SKNVOMKLSA-N\\0,1\O,0,-0.1242452389,1.0120707384,3.09098560
 39\C,0,-1.0112319712,0.237323392,2.301283968\O,0,-0.8117769212,-1.1712
 997686,2.475046204\C,0,0.51918808,-1.5990910115,2.0992692501\C,0,0.798
 2149404,-1.2965262054,0.6206108244\O,0,2.1658761179,-1.5901342141,0.27
 30886443\C,0,0.5855364349,0.1915105052,0.3542393226\O,0,0.6596827804,0
 .5065346834,-1.0484803079\C,0,-0.8075363244,0.6101941815,0.8244138208\
 O,0,-1.0352405829,2.0131976101,0.6501985573\H,0,-0.3592204152,0.862662
 2969,4.0255120978\H,0,-2.060347955,0.4031661468,2.596373379\H,0,1.2796
 656352,-1.0998091295,2.7238419308\H,0,0.5525936437,-2.6794165116,2.292
 5652689\H,0,0.1020043959,-1.869360503,-0.0187447994\H,0,2.2378927895,-
 2.5467786675,0.1069998468\H,0,1.3446832379,0.766139098,0.9178033814\H,
 0,1.5491841396,0.2406330156,-1.3475253737\H,0,-1.551615386,0.025315700
 3,0.2494435619\H,0,-0.7906473086,2.2111670869,-0.2740624149\\Version=E
 S64L-G16RevC.01\State=1-A\HF=-572.8935912\RMSD=3.509e-09\Dipole=0.3687
 256,-1.5332614,-0.0277386\Quadrupole=-2.4418785,-0.8046895,3.246568,-2
 .4454637,-2.3453829,1.5880508\PG=C01 [X(C5H10O5)]\\@
 The archive entry for this job was punched.


 I think that all right-thinking people in this
 country are sick and tired of being told that
 ordinary, decent people are fed up in this country
 with being sick and tired.  I'm certainly not!
 But I'm sick and tired of being told that I am!
                               -- Monty Python
 Job cpu time:       0 days  0 hours  6 minutes 14.1 seconds.
 Elapsed time:       0 days  0 hours  0 minutes 12.2 seconds.
 File lengths (MBytes):  RWF=     51 Int=      0 D2E=      0 Chk=      9 Scr=      1
 Normal termination of Gaussian 16 at Mon Feb 22 21:21:53 2021.
