 Entering Gaussian System, Link 0=g16
 Input=SRBFZHDQGSBBOR-SQOUGZDYSA-N.gjf
 Output=SRBFZHDQGSBBOR-SQOUGZDYSA-N.log
 Initial command:
 /sw/arch/RedHatEnterpriseServer7/EB_production/2019/software/Gaussian/g16.c01/l1.exe "/scratch-local/elenaa.9715275/Gau-30701.inp" -scrdir="/scratch-local/elenaa.9715275/"
 Entering Link 1 = /sw/arch/RedHatEnterpriseServer7/EB_production/2019/software/Gaussian/g16.c01/l1.exe PID=     30702.
  
 Copyright (c) 1988-2019, Gaussian, Inc.  All Rights Reserved.
  
 This is part of the Gaussian(R) 16 program.  It is based on
 the Gaussian(R) 09 system (copyright 2009, Gaussian, Inc.),
 the Gaussian(R) 03 system (copyright 2003, Gaussian, Inc.),
 the Gaussian(R) 98 system (copyright 1998, Gaussian, Inc.),
 the Gaussian(R) 94 system (copyright 1995, Gaussian, Inc.),
 the Gaussian 92(TM) system (copyright 1992, Gaussian, Inc.),
 the Gaussian 90(TM) system (copyright 1990, Gaussian, Inc.),
 the Gaussian 88(TM) system (copyright 1988, Gaussian, Inc.),
 the Gaussian 86(TM) system (copyright 1986, Carnegie Mellon
 University), and the Gaussian 82(TM) system (copyright 1983,
 Carnegie Mellon University). Gaussian is a federally registered
 trademark of Gaussian, Inc.
  
 This software contains proprietary and confidential information,
 including trade secrets, belonging to Gaussian, Inc.
  
 This software is provided under written license and may be
 used, copied, transmitted, or stored only in accord with that
 written license.
  
 The following legend is applicable only to US Government
 contracts under FAR:
  
                    RESTRICTED RIGHTS LEGEND
  
 Use, reproduction and disclosure by the US Government is
 subject to restrictions as set forth in subparagraphs (a)
 and (c) of the Commercial Computer Software - Restricted
 Rights clause in FAR 52.227-19.
  
 Gaussian, Inc.
 340 Quinnipiac St., Bldg. 40, Wallingford CT 06492
  
  
 ---------------------------------------------------------------
 Warning -- This program may not be used in any manner that
 competes with the business of Gaussian, Inc. or will provide
 assistance to any competitor of Gaussian, Inc.  The licensee
 of this program is prohibited from giving any competitor of
 Gaussian, Inc. access to this program.  By using this program,
 the user acknowledges that Gaussian, Inc. is engaged in the
 business of creating and licensing software in the field of
 computational chemistry and represents and warrants to the
 licensee that it is not a competitor of Gaussian, Inc. and that
 it will not use this program in any manner prohibited above.
 ---------------------------------------------------------------
  

 Cite this work as:
 Gaussian 16, Revision C.01,
 M. J. Frisch, G. W. Trucks, H. B. Schlegel, G. E. Scuseria, 
 M. A. Robb, J. R. Cheeseman, G. Scalmani, V. Barone, 
 G. A. Petersson, H. Nakatsuji, X. Li, M. Caricato, A. V. Marenich, 
 J. Bloino, B. G. Janesko, R. Gomperts, B. Mennucci, H. P. Hratchian, 
 J. V. Ortiz, A. F. Izmaylov, J. L. Sonnenberg, D. Williams-Young, 
 F. Ding, F. Lipparini, F. Egidi, J. Goings, B. Peng, A. Petrone, 
 T. Henderson, D. Ranasinghe, V. G. Zakrzewski, J. Gao, N. Rega, 
 G. Zheng, W. Liang, M. Hada, M. Ehara, K. Toyota, R. Fukuda, 
 J. Hasegawa, M. Ishida, T. Nakajima, Y. Honda, O. Kitao, H. Nakai, 
 T. Vreven, K. Throssell, J. A. Montgomery, Jr., J. E. Peralta, 
 F. Ogliaro, M. J. Bearpark, J. J. Heyd, E. N. Brothers, K. N. Kudin, 
 V. N. Staroverov, T. A. Keith, R. Kobayashi, J. Normand, 
 K. Raghavachari, A. P. Rendell, J. C. Burant, S. S. Iyengar, 
 J. Tomasi, M. Cossi, J. M. Millam, M. Klene, C. Adamo, R. Cammi, 
 J. W. Ochterski, R. L. Martin, K. Morokuma, O. Farkas, 
 J. B. Foresman, and D. J. Fox, Gaussian, Inc., Wallingford CT, 2019.
 
 ******************************************
 Gaussian 16:  ES64L-G16RevC.01  3-Jul-2019
                22-Feb-2021 
 ******************************************
 %chk=SRBFZHDQGSBBOR-SQOUGZDYSA-N.chk
 %NProcShared=32
 Will use up to   32 processors via shared memory.
 -------------------------------------------------------------
 #P BP86/TZVP EmpiricalDispersion=GD3 SCRF=(Solvent=Water) Opt
 -------------------------------------------------------------
 1/18=20,19=15,26=3,38=1/1,3;
 2/9=110,12=2,17=6,18=5,40=1/2;
 3/5=19,7=101,11=2,25=1,30=1,70=2201,71=1,72=1,74=404,124=31/1,2,3;
 4//1;
 5/5=2,38=5,53=1/2;
 6/7=2,8=2,9=2,10=2,28=1/1;
 7//1,2,3,16;
 1/18=20,19=15,26=3/3(2);
 2/9=110/2;
 99//99;
 2/9=110/2;
 3/5=19,7=101,11=2,25=1,30=1,70=2205,71=1,72=1,74=404,124=31/1,2,3;
 4/5=5,16=3,69=1/1;
 5/5=2,38=5,53=1/2;
 7//1,2,3,16;
 1/18=20,19=15,26=3/3(-5);
 2/9=110/2;
 6/7=2,8=2,9=2,10=2,19=2,28=1/1;
 99/9=1/99;
 Leave Link    1 at Mon Feb 22 21:19:13 2021, MaxMem=           0 cpu:               1.8 elap:               0.1
 (Enter /sw/arch/RedHatEnterpriseServer7/EB_production/2019/software/Gaussian/g16.c01/l101.exe)
 -------------------------------------
 Particle #SRBFZHDQGSBBOR-SQOUGZDYSA-N
 -------------------------------------
 Symbolic Z-matrix:
 Charge =  0 Multiplicity = 1
 O                    -2.35076   0.57224   2.7733 
 C                    -3.26612  -0.0964    1.91019 
 C                    -3.06183  -1.63186   1.98851 
 O                    -1.79256  -2.0184    1.42327 
 C                    -1.6215   -1.64083   0.03982 
 O                    -2.61407  -2.31359  -0.72632 
 C                    -1.75931  -0.1065   -0.15199 
 O                    -1.70432   0.20112  -1.54368 
 C                    -3.10257   0.39698   0.44637 
 O                    -3.15949   1.82425   0.40512 
 H                    -2.56068   1.5249    2.67476 
 H                    -4.27398   0.14128   2.26055 
 H                    -3.17649  -1.98213   3.01863 
 H                    -3.82062  -2.12839   1.38172 
 H                    -0.64796  -1.9815   -0.32665 
 H                    -2.44046  -3.26626  -0.58075 
 H                    -0.924     0.39999   0.33755 
 H                    -0.83052  -0.12399  -1.84157 
 H                    -3.93289   0.0192   -0.15684 
 H                    -3.03097   2.05858  -0.53671 
 
 ITRead=  0  0  0  0  0  0  0  0  0  0  0  0  0  0  0  0  0  0  0  0
 MicOpt= -1 -1 -1 -1 -1 -1 -1 -1 -1 -1 -1 -1 -1 -1 -1 -1 -1 -1 -1 -1
 NAtoms=     20 NQM=       20 NQMF=       0 NMMI=      0 NMMIF=      0
                NMic=       0 NMicF=      0.
                    Isotopes and Nuclear Properties:
 (Nuclear quadrupole moments (NQMom) in fm**2, nuclear magnetic moments (NMagM)
  in nuclear magnetons)

  Atom         1           2           3           4           5           6           7           8           9          10
 IAtWgt=          16          12          12          16          12          16          12          16          12          16
 AtmWgt=  15.9949146  12.0000000  12.0000000  15.9949146  12.0000000  15.9949146  12.0000000  15.9949146  12.0000000  15.9949146
 NucSpn=           0           0           0           0           0           0           0           0           0           0
 AtZEff=  -0.0000000  -0.0000000  -0.0000000  -0.0000000  -0.0000000  -0.0000000  -0.0000000  -0.0000000  -0.0000000  -0.0000000
 NQMom=    0.0000000   0.0000000   0.0000000   0.0000000   0.0000000   0.0000000   0.0000000   0.0000000   0.0000000   0.0000000
 NMagM=    0.0000000   0.0000000   0.0000000   0.0000000   0.0000000   0.0000000   0.0000000   0.0000000   0.0000000   0.0000000
 AtZNuc=   8.0000000   6.0000000   6.0000000   8.0000000   6.0000000   8.0000000   6.0000000   8.0000000   6.0000000   8.0000000

  Atom        11          12          13          14          15          16          17          18          19          20
 IAtWgt=           1           1           1           1           1           1           1           1           1           1
 AtmWgt=   1.0078250   1.0078250   1.0078250   1.0078250   1.0078250   1.0078250   1.0078250   1.0078250   1.0078250   1.0078250
 NucSpn=           1           1           1           1           1           1           1           1           1           1
 AtZEff=  -0.0000000  -0.0000000  -0.0000000  -0.0000000  -0.0000000  -0.0000000  -0.0000000  -0.0000000  -0.0000000  -0.0000000
 NQMom=    0.0000000   0.0000000   0.0000000   0.0000000   0.0000000   0.0000000   0.0000000   0.0000000   0.0000000   0.0000000
 NMagM=    2.7928460   2.7928460   2.7928460   2.7928460   2.7928460   2.7928460   2.7928460   2.7928460   2.7928460   2.7928460
 AtZNuc=   1.0000000   1.0000000   1.0000000   1.0000000   1.0000000   1.0000000   1.0000000   1.0000000   1.0000000   1.0000000
 Leave Link  101 at Mon Feb 22 21:19:13 2021, MaxMem=   104857600 cpu:               3.0 elap:               0.1
 (Enter /sw/arch/RedHatEnterpriseServer7/EB_production/2019/software/Gaussian/g16.c01/l103.exe)

 GradGradGradGradGradGradGradGradGradGradGradGradGradGradGradGradGradGrad
 Berny optimization.
 Initialization pass.
                           ----------------------------
                           !    Initial Parameters    !
                           ! (Angstroms and Degrees)  !
 --------------------------                            --------------------------
 ! Name  Definition              Value          Derivative Info.                !
 --------------------------------------------------------------------------------
 ! R1    R(1,2)                  1.4247         estimate D2E/DX2                !
 ! R2    R(1,11)                 0.9805         estimate D2E/DX2                !
 ! R3    R(2,3)                  1.551          estimate D2E/DX2                !
 ! R4    R(2,9)                  1.5534         estimate D2E/DX2                !
 ! R5    R(2,12)                 1.0932         estimate D2E/DX2                !
 ! R6    R(3,4)                  1.4422         estimate D2E/DX2                !
 ! R7    R(3,13)                 1.0941         estimate D2E/DX2                !
 ! R8    R(3,14)                 1.0911         estimate D2E/DX2                !
 ! R9    R(4,5)                  1.4442         estimate D2E/DX2                !
 ! R10   R(5,6)                  1.4229         estimate D2E/DX2                !
 ! R11   R(5,7)                  1.5524         estimate D2E/DX2                !
 ! R12   R(5,15)                 1.0946         estimate D2E/DX2                !
 ! R13   R(6,16)                 0.9792         estimate D2E/DX2                !
 ! R14   R(7,8)                  1.4263         estimate D2E/DX2                !
 ! R15   R(7,9)                  1.5543         estimate D2E/DX2                !
 ! R16   R(7,17)                 1.0927         estimate D2E/DX2                !
 ! R17   R(8,18)                 0.9788         estimate D2E/DX2                !
 ! R18   R(9,10)                 1.429          estimate D2E/DX2                !
 ! R19   R(9,19)                 1.0936         estimate D2E/DX2                !
 ! R20   R(10,20)                0.979          estimate D2E/DX2                !
 ! A1    A(2,1,11)             104.9253         estimate D2E/DX2                !
 ! A2    A(1,2,3)              110.4502         estimate D2E/DX2                !
 ! A3    A(1,2,9)              110.7425         estimate D2E/DX2                !
 ! A4    A(1,2,12)             107.226          estimate D2E/DX2                !
 ! A5    A(3,2,9)              110.3746         estimate D2E/DX2                !
 ! A6    A(3,2,12)             108.6934         estimate D2E/DX2                !
 ! A7    A(9,2,12)             109.271          estimate D2E/DX2                !
 ! A8    A(2,3,4)              111.1909         estimate D2E/DX2                !
 ! A9    A(2,3,13)             110.5295         estimate D2E/DX2                !
 ! A10   A(2,3,14)             109.3197         estimate D2E/DX2                !
 ! A11   A(4,3,13)             112.052          estimate D2E/DX2                !
 ! A12   A(4,3,14)             105.7904         estimate D2E/DX2                !
 ! A13   A(13,3,14)            107.7607         estimate D2E/DX2                !
 ! A14   A(3,4,5)              114.1803         estimate D2E/DX2                !
 ! A15   A(4,5,6)              108.0314         estimate D2E/DX2                !
 ! A16   A(4,5,7)              111.4837         estimate D2E/DX2                !
 ! A17   A(4,5,15)             110.163          estimate D2E/DX2                !
 ! A18   A(6,5,7)              109.8064         estimate D2E/DX2                !
 ! A19   A(6,5,15)             107.0372         estimate D2E/DX2                !
 ! A20   A(7,5,15)             110.1936         estimate D2E/DX2                !
 ! A21   A(5,6,16)             104.8481         estimate D2E/DX2                !
 ! A22   A(5,7,8)              109.2866         estimate D2E/DX2                !
 ! A23   A(5,7,9)              110.4449         estimate D2E/DX2                !
 ! A24   A(5,7,17)             109.5675         estimate D2E/DX2                !
 ! A25   A(8,7,9)              109.8203         estimate D2E/DX2                !
 ! A26   A(8,7,17)             107.9204         estimate D2E/DX2                !
 ! A27   A(9,7,17)             109.7577         estimate D2E/DX2                !
 ! A28   A(7,8,18)             105.0546         estimate D2E/DX2                !
 ! A29   A(2,9,7)              110.5414         estimate D2E/DX2                !
 ! A30   A(2,9,10)             109.8916         estimate D2E/DX2                !
 ! A31   A(2,9,19)             109.2758         estimate D2E/DX2                !
 ! A32   A(7,9,10)             110.2942         estimate D2E/DX2                !
 ! A33   A(7,9,19)             109.3853         estimate D2E/DX2                !
 ! A34   A(10,9,19)            107.389          estimate D2E/DX2                !
 ! A35   A(9,10,20)            105.1649         estimate D2E/DX2                !
 ! D1    D(11,1,2,3)          -178.903          estimate D2E/DX2                !
 ! D2    D(11,1,2,9)            58.512          estimate D2E/DX2                !
 ! D3    D(11,1,2,12)          -60.6255         estimate D2E/DX2                !
 ! D4    D(1,2,3,4)            -67.9111         estimate D2E/DX2                !
 ! D5    D(1,2,3,13)            57.2            estimate D2E/DX2                !
 ! D6    D(1,2,3,14)           175.6536         estimate D2E/DX2                !
 ! D7    D(9,2,3,4)             54.8889         estimate D2E/DX2                !
 ! D8    D(9,2,3,13)           180.0            estimate D2E/DX2                !
 ! D9    D(9,2,3,14)           -61.5464         estimate D2E/DX2                !
 ! D10   D(12,2,3,4)           174.7126         estimate D2E/DX2                !
 ! D11   D(12,2,3,13)          -60.1764         estimate D2E/DX2                !
 ! D12   D(12,2,3,14)           58.2773         estimate D2E/DX2                !
 ! D13   D(1,2,9,7)             70.364          estimate D2E/DX2                !
 ! D14   D(1,2,9,10)           -51.6057         estimate D2E/DX2                !
 ! D15   D(1,2,9,19)          -169.2016         estimate D2E/DX2                !
 ! D16   D(3,2,9,7)            -52.265          estimate D2E/DX2                !
 ! D17   D(3,2,9,10)          -174.2347         estimate D2E/DX2                !
 ! D18   D(3,2,9,19)            68.1693         estimate D2E/DX2                !
 ! D19   D(12,2,9,7)          -171.7395         estimate D2E/DX2                !
 ! D20   D(12,2,9,10)           66.2908         estimate D2E/DX2                !
 ! D21   D(12,2,9,19)          -51.3052         estimate D2E/DX2                !
 ! D22   D(2,3,4,5)            -58.876          estimate D2E/DX2                !
 ! D23   D(13,3,4,5)           176.8704         estimate D2E/DX2                !
 ! D24   D(14,3,4,5)            59.7038         estimate D2E/DX2                !
 ! D25   D(3,4,5,6)            -62.3208         estimate D2E/DX2                !
 ! D26   D(3,4,5,7)             58.4144         estimate D2E/DX2                !
 ! D27   D(3,4,5,15)          -178.9217         estimate D2E/DX2                !
 ! D28   D(4,5,6,16)           -60.3234         estimate D2E/DX2                !
 ! D29   D(7,5,6,16)           177.9001         estimate D2E/DX2                !
 ! D30   D(15,5,6,16)           58.2894         estimate D2E/DX2                !
 ! D31   D(4,5,7,8)           -174.7665         estimate D2E/DX2                !
 ! D32   D(4,5,7,9)            -53.847          estimate D2E/DX2                !
 ! D33   D(4,5,7,17)            67.1763         estimate D2E/DX2                !
 ! D34   D(6,5,7,8)            -55.076          estimate D2E/DX2                !
 ! D35   D(6,5,7,9)             65.8435         estimate D2E/DX2                !
 ! D36   D(6,5,7,17)          -173.1333         estimate D2E/DX2                !
 ! D37   D(15,5,7,8)            62.5873         estimate D2E/DX2                !
 ! D38   D(15,5,7,9)          -176.4933         estimate D2E/DX2                !
 ! D39   D(15,5,7,17)          -55.47           estimate D2E/DX2                !
 ! D40   D(5,7,8,18)           -60.0            estimate D2E/DX2                !
 ! D41   D(9,7,8,18)           178.7011         estimate D2E/DX2                !
 ! D42   D(17,7,8,18)           59.0837         estimate D2E/DX2                !
 ! D43   D(5,7,9,2)             51.72           estimate D2E/DX2                !
 ! D44   D(5,7,9,10)           173.4527         estimate D2E/DX2                !
 ! D45   D(5,7,9,19)           -68.6488         estimate D2E/DX2                !
 ! D46   D(8,7,9,2)            172.321          estimate D2E/DX2                !
 ! D47   D(8,7,9,10)           -65.9463         estimate D2E/DX2                !
 ! D48   D(8,7,9,19)            51.9522         estimate D2E/DX2                !
 ! D49   D(17,7,9,2)           -69.19           estimate D2E/DX2                !
 ! D50   D(17,7,9,10)           52.5426         estimate D2E/DX2                !
 ! D51   D(17,7,9,19)          170.4411         estimate D2E/DX2                !
 ! D52   D(2,9,10,20)          178.818          estimate D2E/DX2                !
 ! D53   D(7,9,10,20)           56.7013         estimate D2E/DX2                !
 ! D54   D(19,9,10,20)         -62.4191         estimate D2E/DX2                !
 --------------------------------------------------------------------------------
 Trust Radius=3.00D-01 FncErr=1.00D-07 GrdErr=1.00D-06 EigMax=2.50D+02 EigMin=1.00D-04
 Number of steps in this run=    119 maximum allowed number of steps=    120.
 GradGradGradGradGradGradGradGradGradGradGradGradGradGradGradGradGradGrad

 Leave Link  103 at Mon Feb 22 21:19:13 2021, MaxMem=   104857600 cpu:               0.5 elap:               0.0
 (Enter /sw/arch/RedHatEnterpriseServer7/EB_production/2019/software/Gaussian/g16.c01/l202.exe)
                          Input orientation:                          
 ---------------------------------------------------------------------
 Center     Atomic      Atomic             Coordinates (Angstroms)
 Number     Number       Type             X           Y           Z
 ---------------------------------------------------------------------
      1          8           0       -2.350759    0.572236    2.773296
      2          6           0       -3.266120   -0.096401    1.910195
      3          6           0       -3.061828   -1.631856    1.988510
      4          8           0       -1.792560   -2.018400    1.423270
      5          6           0       -1.621500   -1.640830    0.039820
      6          8           0       -2.614070   -2.313590   -0.726320
      7          6           0       -1.759310   -0.106500   -0.151990
      8          8           0       -1.704320    0.201122   -1.543677
      9          6           0       -3.102569    0.396977    0.446367
     10          8           0       -3.159485    1.824251    0.405117
     11          1           0       -2.560677    1.524905    2.674764
     12          1           0       -4.273976    0.141276    2.260552
     13          1           0       -3.176489   -1.982125    3.018635
     14          1           0       -3.820624   -2.128387    1.381725
     15          1           0       -0.647960   -1.981500   -0.326650
     16          1           0       -2.440460   -3.266260   -0.580750
     17          1           0       -0.924003    0.399987    0.337550
     18          1           0       -0.830515   -0.123994   -1.841567
     19          1           0       -3.932888    0.019200   -0.156835
     20          1           0       -3.030972    2.058575   -0.536714
 ---------------------------------------------------------------------
                    Distance matrix (angstroms):
                    1          2          3          4          5
     1  O    0.000000
     2  C    1.424748   0.000000
     3  C    2.445308   1.550964   0.000000
     4  O    2.974147   2.470335   1.442205   0.000000
     5  C    3.591848   2.930587   2.423225   1.444214   0.000000
     6  O    4.543637   3.506038   2.834705   2.320076   1.422945
     7  C    3.060685   2.554053   2.933430   2.477481   1.552402
     8  O    4.380852   3.802232   4.204639   3.706324   2.430454
     9  C    2.451639   1.553371   2.548731   2.916249   2.551765
    10  O    2.798187   2.442445   3.802808   4.203700   3.808626
    11  H    0.980485   1.926357   3.269134   3.835524   4.224554
    12  H    2.036516   1.093167   2.165019   3.394506   3.891424
    13  H    2.695697   2.189207   1.094071   2.112289   3.377545
    14  H    3.374958   2.171571   1.091102   2.031469   2.621940
    15  H    4.362426   3.925791   3.362883   2.091337   1.094594
    16  H    5.098208   4.115158   3.107808   2.448066   1.922973
    17  H    2.828102   2.864459   3.379993   2.789583   2.177172
    18  H    4.908446   4.473103   4.682083   3.895313   2.542846
    19  H    3.375597   2.174984   2.843808   3.351053   2.852524
    20  H    3.691621   3.269034   4.471800   4.690089   4.000575
                    6          7          8          9         10
     6  O    0.000000
     7  C    2.435511   0.000000
     8  O    2.796336   1.426341   0.000000
     9  C    2.993493   1.554305   2.440027   0.000000
    10  O    4.324276   2.449216   2.924013   1.429004   0.000000
    11  H    5.128768   3.360686   4.503442   2.555704   2.366321
    12  H    4.207501   3.493608   4.591173   2.174591   2.741739
    13  H    3.801430   3.947053   5.267688   3.504590   4.617279
    14  H    2.435965   3.269453   4.296898   2.787106   4.124830
    15  H    2.033620   2.186602   2.713096   3.504256   4.618115
    16  H    0.979240   3.260657   3.673128   3.861692   5.234715
    17  H    3.369220   1.092665   2.046328   2.181285   2.651505
    18  H    3.036309   1.928117   0.978761   3.266233   3.777215
    19  H    2.739618   2.177215   2.631148   1.093617   2.042585
    20  H    4.396088   2.540214   2.494817   1.931964   0.979015
                   11         12         13         14         15
    11  H    0.000000
    12  H    2.240847   0.000000
    13  H    3.577252   2.507589   0.000000
    14  H    4.075041   2.475730   1.765157   0.000000
    15  H    4.996183   4.934348   4.193375   3.606372   0.000000
    16  H    5.793797   4.800634   3.891826   2.655356   2.219962
    17  H    3.067036   3.871329   4.235135   3.984142   2.487738
    18  H    5.109752   5.362385   5.707697   4.831972   2.403878
    19  H    3.488275   2.444383   3.828976   2.644221   3.849986
    20  H    3.289312   3.611896   5.384138   4.672752   4.695219
                   16         17         18         19         20
    16  H    0.000000
    17  H    4.072380   0.000000
    18  H    3.749056   2.243178   0.000000
    19  H    3.633359   3.072915   3.533206   0.000000
    20  H    5.357660   2.820386   3.362775   2.262037   0.000000
 Stoichiometry    C5H10O5
 Framework group  C1[X(C5H10O5)]
 Deg. of freedom    54
 Full point group                 C1      NOp   1
 Largest Abelian subgroup         C1      NOp   1
 Largest concise Abelian subgroup C1      NOp   1
                         Standard orientation:                         
 ---------------------------------------------------------------------
 Center     Atomic      Atomic             Coordinates (Angstroms)
 Number     Number       Type             X           Y           Z
 ---------------------------------------------------------------------
      1          8           0        2.128146   -0.738998   -0.788673
      2          6           0        1.351728   -0.684760    0.404700
      3          6           0        0.296603   -1.821446    0.416851
      4          8           0       -0.708955   -1.610186   -0.595165
      5          6           0       -1.429317   -0.365495   -0.462595
      6          8           0       -2.121403   -0.387378    0.780510
      7          6           0       -0.470168    0.854263   -0.509244
      8          8           0       -1.210824    2.046053   -0.253294
      9          6           0        0.658648    0.698042    0.547750
     10          8           0        1.622765    1.742597    0.401337
     11          1           0        2.772916   -0.005201   -0.704027
     12          1           0        2.036670   -0.833529    1.243590
     13          1           0        0.782116   -2.796712    0.316224
     14          1           0       -0.234501   -1.810803    1.369908
     15          1           0       -2.185716   -0.281684   -1.249342
     16          1           0       -2.724223   -1.156590    0.718596
     17          1           0       -0.032841    0.937965   -1.507069
     18          1           0       -1.882100    2.085866   -0.964474
     19          1           0        0.231496    0.785748    1.550669
     20          1           0        1.113389    2.574623    0.483429
 ---------------------------------------------------------------------
 Rotational constants (GHZ):           1.6307176           1.4144035           0.9039777
 Leave Link  202 at Mon Feb 22 21:19:14 2021, MaxMem=   104857600 cpu:               0.5 elap:               0.0
 (Enter /sw/arch/RedHatEnterpriseServer7/EB_production/2019/software/Gaussian/g16.c01/l301.exe)
 Standard basis: TZVP (5D, 7F)
 Ernie: Thresh=  0.10000D-02 Tol=  0.10000D-05 Strict=F.
 There are   260 symmetry adapted cartesian basis functions of A   symmetry.
 There are   250 symmetry adapted basis functions of A   symmetry.
   250 basis functions,   430 primitive gaussians,   260 cartesian basis functions
    40 alpha electrons       40 beta electrons
       nuclear repulsion energy       621.7774872699 Hartrees.
 IExCor=  404 DFT=T Ex=B Corr=P86 ExCW=0 ScaHFX=  0.000000
 ScaDFX=  1.000000  1.000000  1.000000  1.000000 ScalE2=  1.000000  1.000000
 IRadAn=      5 IRanWt=     -1 IRanGd=            0 ICorTp=0 IEmpDi=131
 NAtoms=   20 NActive=   20 NUniq=   20 SFac= 1.00D+00 NAtFMM=   60 NAOKFM=F Big=F
 Integral buffers will be    131072 words long.
 Raffenetti 2 integral format.
 Two-electron integral symmetry is turned on.
 R6Disp:  Grimme-D3 Dispersion energy=       -0.0231037439 Hartrees.
 Nuclear repulsion after empirical dispersion term =      621.7543835260 Hartrees.
 ------------------------------------------------------------------------------
 Polarizable Continuum Model (PCM)
 =================================
 Model                : PCM.
 Atomic radii         : UFF (Universal Force Field).
 Polarization charges : Total charges.
 Charge compensation  : None.
 Solution method      : On-the-fly selection.
 Cavity type          : Scaled VdW (van der Waals Surface) (Alpha=1.100).
 Cavity algorithm     : GePol (No added spheres)
                        Default sphere list used, NSphG=   20.
                        Lebedev-Laikov grids with approx.  5.0 points / Ang**2.
                        Smoothing algorithm: York/Karplus (Gamma=1.0000).
                        Polarization charges: spherical gaussians, with
                                              point-specific exponents (IZeta= 3).
                        Self-potential: point-specific (ISelfS= 7).
                        Self-field    : sphere-specific E.n sum rule (ISelfD= 2).
 1st derivatives      : Analytical E(r).r(x)/FMM algorithm (CHGder, D1EAlg=3).
                        Cavity 1st derivative terms included.
 Solvent              : Water, Eps=  78.355300 Eps(inf)=   1.777849
 ------------------------------------------------------------------------------
 Spheres list:
 ISph  on   Nord     Re0    Alpha      Xe            Ye            Ze
    1   O      1    1.7500  1.100      2.128146     -0.738998     -0.788673
    2   C      2    1.9255  1.100      1.351728     -0.684760      0.404700
    3   C      3    1.9255  1.100      0.296603     -1.821446      0.416851
    4   O      4    1.7500  1.100     -0.708955     -1.610186     -0.595165
    5   C      5    1.9255  1.100     -1.429317     -0.365495     -0.462595
    6   O      6    1.7500  1.100     -2.121403     -0.387378      0.780510
    7   C      7    1.9255  1.100     -0.470168      0.854263     -0.509244
    8   O      8    1.7500  1.100     -1.210824      2.046053     -0.253294
    9   C      9    1.9255  1.100      0.658648      0.698042      0.547750
   10   O     10    1.7500  1.100      1.622765      1.742597      0.401337
   11   H     11    1.4430  1.100      2.772916     -0.005201     -0.704027
   12   H     12    1.4430  1.100      2.036670     -0.833529      1.243590
   13   H     13    1.4430  1.100      0.782116     -2.796712      0.316224
   14   H     14    1.4430  1.100     -0.234501     -1.810803      1.369908
   15   H     15    1.4430  1.100     -2.185716     -0.281684     -1.249342
   16   H     16    1.4430  1.100     -2.724223     -1.156590      0.718596
   17   H     17    1.4430  1.100     -0.032841      0.937965     -1.507069
   18   H     18    1.4430  1.100     -1.882100      2.085866     -0.964474
   19   H     19    1.4430  1.100      0.231496      0.785748      1.550669
   20   H     20    1.4430  1.100      1.113389      2.574623      0.483429
 ------------------------------------------------------------------------------
 GePol: Number of generator spheres                  =      20
 GePol: Total number of spheres                      =      20
 GePol: Number of exposed spheres                    =      20 (100.00%)
 GePol: Number of points                             =    1483
 GePol: Average weight of points                     =       0.13
 GePol: Minimum weight of points                     =   0.13D-08
 GePol: Maximum weight of points                     =    0.20577
 GePol: Number of points with low weight             =     101
 GePol: Fraction of low-weight points (<1% of avg)   =       6.81%
 GePol: Cavity surface area                          =    194.219 Ang**2
 GePol: Cavity volume                                =    197.658 Ang**3
 Leave Link  301 at Mon Feb 22 21:19:14 2021, MaxMem=   104857600 cpu:               1.9 elap:               0.1
 (Enter /sw/arch/RedHatEnterpriseServer7/EB_production/2019/software/Gaussian/g16.c01/l302.exe)
 NPDir=0 NMtPBC=     1 NCelOv=     1 NCel=       1 NClECP=     1 NCelD=      1
         NCelK=      1 NCelE2=     1 NClLst=     1 CellRange=     0.0.
 One-electron integrals computed using PRISM.
 One-electron integral symmetry used in STVInt
 PrsmSu:  requested number of processors reduced to:  28 ShMem   1 Linda.
 NBasis=   250 RedAO= T EigKep=  8.11D-05  NBF=   250
 NBsUse=   250 1.00D-06 EigRej= -1.00D+00 NBFU=   250
 Precomputing XC quadrature grid using
 IXCGrd= 4 IRadAn=           5 IRanWt=          -1 IRanGd=           0 AccXCQ= 0.00D+00.
 Generated NRdTot=       0 NPtTot=           0 NUsed=           0 NTot=          32
 NSgBfM=   258   258   258   258   258 MxSgAt=    20 MxSgA2=    20.
 Leave Link  302 at Mon Feb 22 21:19:14 2021, MaxMem=   104857600 cpu:               9.5 elap:               0.4
 (Enter /sw/arch/RedHatEnterpriseServer7/EB_production/2019/software/Gaussian/g16.c01/l303.exe)
 DipDrv:  MaxL=1.
 Leave Link  303 at Mon Feb 22 21:19:15 2021, MaxMem=   104857600 cpu:               2.6 elap:               0.1
 (Enter /sw/arch/RedHatEnterpriseServer7/EB_production/2019/software/Gaussian/g16.c01/l401.exe)
 ExpMin= 9.52D-02 ExpMax= 2.70D+04 ExpMxC= 9.22D+02 IAcc=3 IRadAn=         5 AccDes= 0.00D+00
 Harris functional with IExCor=  404 and IRadAn=       5 diagonalized for initial guess.
 HarFok:  IExCor=  404 AccDes= 0.00D+00 IRadAn=         5 IDoV= 1 UseB2=F ITyADJ=14
 ICtDFT=  3500011 ScaDFX=  1.000000  1.000000  1.000000  1.000000
 FoFCou: FMM=F IPFlag=           0 FMFlag=      100000 FMFlg1=           0
         NFxFlg=           0 DoJE=T BraDBF=F KetDBF=T FulRan=T
         wScrn=  0.000000 ICntrl=       500 IOpCl=  0 I1Cent=   200000004 NGrid=           0
         NMat0=    1 NMatS0=      1 NMatT0=    0 NMatD0=    1 NMtDS0=    0 NMtDT0=    0
 Petite list used in FoFCou.
 Harris En= -573.013114125113    
 JPrj=0 DoOrth=F DoCkMO=F.
 Leave Link  401 at Mon Feb 22 21:19:15 2021, MaxMem=   104857600 cpu:              14.4 elap:               0.5
 (Enter /sw/arch/RedHatEnterpriseServer7/EB_production/2019/software/Gaussian/g16.c01/l502.exe)
 Integral symmetry usage will be decided dynamically.
 Closed shell SCF:
 Using DIIS extrapolation, IDIIS=  1040.
 NGot=   104857600 LenX=   104710894 LenY=   104642853
 Requested convergence on RMS density matrix=1.00D-08 within 128 cycles.
 Requested convergence on MAX density matrix=1.00D-06.
 Requested convergence on             energy=1.00D-06.
 No special actions if energy rises.
 Fock matrices will be formed incrementally for  20 cycles.

 Cycle   1  Pass 1  IDiag  1:
 FoFJK:  IHMeth= 1 ICntrl=     500 DoSepK=F KAlg= 0 I1Cent=           0 FoldK=F
 IRaf= 940000000 NMat=       1 IRICut=       1 DoRegI=T DoRafI=F ISym2E= 0 IDoP0=0 IntGTp=1.
 FoFCou: FMM=F IPFlag=           0 FMFlag=      100000 FMFlg1=           0
         NFxFlg=           0 DoJE=T BraDBF=F KetDBF=F FulRan=T
         wScrn=  0.000000 ICntrl=       500 IOpCl=  0 I1Cent=           0 NGrid=           0
         NMat0=    1 NMatS0=      1 NMatT0=    0 NMatD0=    1 NMtDS0=    0 NMtDT0=    0
 Symmetry not used in FoFCou.
 Inv3:  Mode=1 IEnd=     6597867.
 Iteration    1 A*A^-1 deviation from unit magnitude is 2.89D-15 for    733.
 Iteration    1 A*A^-1 deviation from orthogonality  is 2.00D-15 for   1310    289.
 Iteration    1 A^-1*A deviation from unit magnitude is 2.44D-15 for     33.
 Iteration    1 A^-1*A deviation from orthogonality  is 3.98D-14 for   1465   1445.
 E= -572.683185536350    
 DIIS: error= 1.92D-02 at cycle   1 NSaved=   1.
 NSaved= 1 IEnMin= 1 EnMin= -572.683185536350     IErMin= 1 ErrMin= 1.92D-02
 ErrMax= 1.92D-02  0.00D+00 EMaxC= 1.00D-01 BMatC= 2.79D-01 BMatP= 2.79D-01
 IDIUse=3 WtCom= 8.08D-01 WtEn= 1.92D-01
 Coeff-Com:  0.100D+01
 Coeff-En:   0.100D+01
 Coeff:      0.100D+01
 Gap=     0.185 Goal=   None    Shift=    0.000
 GapD=    0.185 DampG=1.000 DampE=0.500 DampFc=0.5000 IDamp=-1.
 Damping current iteration by 5.00D-01
 RMSDP=1.03D-02 MaxDP=5.97D-01              OVMax= 1.76D-01

 Cycle   2  Pass 1  IDiag  1:
 RMSU=  5.14D-03    CP:  1.04D+00
 E= -572.710022300215     Delta-E=       -0.026836763865 Rises=F Damp=T
 DIIS: error= 1.02D-02 at cycle   2 NSaved=   2.
 NSaved= 2 IEnMin= 2 EnMin= -572.710022300215     IErMin= 2 ErrMin= 1.02D-02
 ErrMax= 1.02D-02  0.00D+00 EMaxC= 1.00D-01 BMatC= 6.42D-02 BMatP= 2.79D-01
 IDIUse=3 WtCom= 8.98D-01 WtEn= 1.02D-01
 Coeff-Com:  0.301D+00 0.699D+00
 Coeff-En:   0.446D+00 0.554D+00
 Coeff:      0.316D+00 0.684D+00
 Gap=     0.235 Goal=   None    Shift=    0.000
 RMSDP=2.84D-03 MaxDP=1.82D-01 DE=-2.68D-02 OVMax= 1.10D-01

 Cycle   3  Pass 1  IDiag  1:
 RMSU=  1.25D-03    CP:  1.02D+00  5.09D-01
 E= -572.887061970014     Delta-E=       -0.177039669798 Rises=F Damp=F
 DIIS: error= 3.55D-03 at cycle   3 NSaved=   3.
 NSaved= 3 IEnMin= 3 EnMin= -572.887061970014     IErMin= 3 ErrMin= 3.55D-03
 ErrMax= 3.55D-03  0.00D+00 EMaxC= 1.00D-01 BMatC= 8.01D-03 BMatP= 6.42D-02
 IDIUse=3 WtCom= 9.64D-01 WtEn= 3.55D-02
 Coeff-Com:  0.102D+00 0.293D+00 0.605D+00
 Coeff-En:   0.000D+00 0.000D+00 0.100D+01
 Coeff:      0.982D-01 0.283D+00 0.619D+00
 Gap=     0.234 Goal=   None    Shift=    0.000
 RMSDP=6.79D-04 MaxDP=1.13D-02 DE=-1.77D-01 OVMax= 1.93D-02

 Cycle   4  Pass 1  IDiag  1:
 RMSU=  5.81D-04    CP:  1.02D+00  5.01D-01  7.25D-01
 E= -572.892081922252     Delta-E=       -0.005019952239 Rises=F Damp=F
 DIIS: error= 2.62D-03 at cycle   4 NSaved=   4.
 NSaved= 4 IEnMin= 4 EnMin= -572.892081922252     IErMin= 4 ErrMin= 2.62D-03
 ErrMax= 2.62D-03  0.00D+00 EMaxC= 1.00D-01 BMatC= 2.86D-03 BMatP= 8.01D-03
 IDIUse=3 WtCom= 9.74D-01 WtEn= 2.62D-02
 Coeff-Com:  0.360D-01 0.955D-01 0.380D+00 0.488D+00
 Coeff-En:   0.000D+00 0.000D+00 0.266D+00 0.734D+00
 Coeff:      0.351D-01 0.930D-01 0.377D+00 0.495D+00
 Gap=     0.227 Goal=   None    Shift=    0.000
 RMSDP=3.85D-04 MaxDP=1.06D-02 DE=-5.02D-03 OVMax= 7.65D-03

 Cycle   5  Pass 1  IDiag  1:
 RMSU=  2.12D-04    CP:  1.02D+00  5.02D-01  8.21D-01  4.99D-01
 E= -572.894562421468     Delta-E=       -0.002480499215 Rises=F Damp=F
 DIIS: error= 3.99D-04 at cycle   5 NSaved=   5.
 NSaved= 5 IEnMin= 5 EnMin= -572.894562421468     IErMin= 5 ErrMin= 3.99D-04
 ErrMax= 3.99D-04  0.00D+00 EMaxC= 1.00D-01 BMatC= 9.25D-05 BMatP= 2.86D-03
 IDIUse=3 WtCom= 9.96D-01 WtEn= 3.99D-03
 Coeff-Com:  0.857D-02 0.137D-01 0.117D+00 0.219D+00 0.641D+00
 Coeff-En:   0.000D+00 0.000D+00 0.000D+00 0.000D+00 0.100D+01
 Coeff:      0.854D-02 0.136D-01 0.117D+00 0.218D+00 0.643D+00
 Gap=     0.228 Goal=   None    Shift=    0.000
 RMSDP=7.47D-05 MaxDP=2.73D-03 DE=-2.48D-03 OVMax= 1.98D-03

 Cycle   6  Pass 1  IDiag  1:
 RMSU=  3.59D-05    CP:  1.02D+00  5.01D-01  8.15D-01  5.55D-01  7.39D-01
 E= -572.894615916983     Delta-E=       -0.000053495515 Rises=F Damp=F
 DIIS: error= 2.68D-04 at cycle   6 NSaved=   6.
 NSaved= 6 IEnMin= 6 EnMin= -572.894615916983     IErMin= 6 ErrMin= 2.68D-04
 ErrMax= 2.68D-04  0.00D+00 EMaxC= 1.00D-01 BMatC= 3.12D-05 BMatP= 9.25D-05
 IDIUse=3 WtCom= 9.97D-01 WtEn= 2.68D-03
 Coeff-Com:  0.410D-02 0.383D-02 0.607D-01 0.124D+00 0.443D+00 0.365D+00
 Coeff-En:   0.000D+00 0.000D+00 0.000D+00 0.000D+00 0.183D+00 0.817D+00
 Coeff:      0.408D-02 0.382D-02 0.605D-01 0.123D+00 0.442D+00 0.366D+00
 Gap=     0.227 Goal=   None    Shift=    0.000
 RMSDP=2.16D-05 MaxDP=5.77D-04 DE=-5.35D-05 OVMax= 8.86D-04

 Cycle   7  Pass 1  IDiag  1:
 RMSU=  8.62D-06    CP:  1.02D+00  5.00D-01  8.17D-01  5.55D-01  7.31D-01
                    CP:  4.73D-01
 E= -572.894636956179     Delta-E=       -0.000021039196 Rises=F Damp=F
 DIIS: error= 2.73D-05 at cycle   7 NSaved=   7.
 NSaved= 7 IEnMin= 7 EnMin= -572.894636956179     IErMin= 7 ErrMin= 2.73D-05
 ErrMax= 2.73D-05  0.00D+00 EMaxC= 1.00D-01 BMatC= 4.09D-07 BMatP= 3.12D-05
 IDIUse=1 WtCom= 1.00D+00 WtEn= 0.00D+00
 Coeff-Com:  0.141D-02 0.505D-03 0.192D-01 0.400D-01 0.154D+00 0.158D+00
 Coeff-Com:  0.627D+00
 Coeff:      0.141D-02 0.505D-03 0.192D-01 0.400D-01 0.154D+00 0.158D+00
 Coeff:      0.627D+00
 Gap=     0.228 Goal=   None    Shift=    0.000
 RMSDP=4.34D-06 MaxDP=1.41D-04 DE=-2.10D-05 OVMax= 1.34D-04

 Cycle   8  Pass 1  IDiag  1:
 RMSU=  2.95D-06    CP:  1.02D+00  5.00D-01  8.17D-01  5.53D-01  7.39D-01
                    CP:  4.94D-01  7.26D-01
 E= -572.894637228971     Delta-E=       -0.000000272792 Rises=F Damp=F
 DIIS: error= 1.30D-05 at cycle   8 NSaved=   8.
 NSaved= 8 IEnMin= 8 EnMin= -572.894637228971     IErMin= 8 ErrMin= 1.30D-05
 ErrMax= 1.30D-05  0.00D+00 EMaxC= 1.00D-01 BMatC= 1.23D-07 BMatP= 4.09D-07
 IDIUse=1 WtCom= 1.00D+00 WtEn= 0.00D+00
 Coeff-Com:  0.539D-03-0.645D-04 0.632D-02 0.131D-01 0.531D-01 0.629D-01
 Coeff-Com:  0.403D+00 0.461D+00
 Coeff:      0.539D-03-0.645D-04 0.632D-02 0.131D-01 0.531D-01 0.629D-01
 Coeff:      0.403D+00 0.461D+00
 Gap=     0.228 Goal=   None    Shift=    0.000
 RMSDP=1.60D-06 MaxDP=3.61D-05 DE=-2.73D-07 OVMax= 6.88D-05

 Cycle   9  Pass 1  IDiag  1:
 RMSU=  1.22D-06    CP:  1.02D+00  5.00D-01  8.17D-01  5.53D-01  7.40D-01
                    CP:  4.91D-01  7.58D-01  6.73D-01
 E= -572.894637298784     Delta-E=       -0.000000069813 Rises=F Damp=F
 DIIS: error= 3.38D-06 at cycle   9 NSaved=   9.
 NSaved= 9 IEnMin= 9 EnMin= -572.894637298784     IErMin= 9 ErrMin= 3.38D-06
 ErrMax= 3.38D-06  0.00D+00 EMaxC= 1.00D-01 BMatC= 7.66D-09 BMatP= 1.23D-07
 IDIUse=1 WtCom= 1.00D+00 WtEn= 0.00D+00
 Coeff-Com:  0.959D-04-0.106D-03 0.596D-03 0.114D-02 0.535D-02 0.980D-02
 Coeff-Com:  0.115D+00 0.241D+00 0.627D+00
 Coeff:      0.959D-04-0.106D-03 0.596D-03 0.114D-02 0.535D-02 0.980D-02
 Coeff:      0.115D+00 0.241D+00 0.627D+00
 Gap=     0.228 Goal=   None    Shift=    0.000
 RMSDP=6.28D-07 MaxDP=2.23D-05 DE=-6.98D-08 OVMax= 1.89D-05

 Cycle  10  Pass 1  IDiag  1:
 RMSU=  3.74D-07    CP:  1.02D+00  5.00D-01  8.17D-01  5.53D-01  7.39D-01
                    CP:  4.91D-01  7.76D-01  7.16D-01  7.11D-01
 E= -572.894637318737     Delta-E=       -0.000000019953 Rises=F Damp=F
 DIIS: error= 1.47D-06 at cycle  10 NSaved=  10.
 NSaved=10 IEnMin=10 EnMin= -572.894637318737     IErMin=10 ErrMin= 1.47D-06
 ErrMax= 1.47D-06  0.00D+00 EMaxC= 1.00D-01 BMatC= 1.25D-09 BMatP= 7.66D-09
 IDIUse=1 WtCom= 1.00D+00 WtEn= 0.00D+00
 Coeff-Com:  0.198D-04-0.612D-04-0.915D-04-0.252D-03-0.602D-03 0.141D-02
 Coeff-Com:  0.405D-01 0.114D+00 0.388D+00 0.457D+00
 Coeff:      0.198D-04-0.612D-04-0.915D-04-0.252D-03-0.602D-03 0.141D-02
 Coeff:      0.405D-01 0.114D+00 0.388D+00 0.457D+00
 Gap=     0.228 Goal=   None    Shift=    0.000
 RMSDP=2.10D-07 MaxDP=9.98D-06 DE=-2.00D-08 OVMax= 5.92D-06

 Cycle  11  Pass 1  IDiag  1:
 RMSU=  1.04D-07    CP:  1.02D+00  5.00D-01  8.17D-01  5.53D-01  7.39D-01
                    CP:  4.93D-01  7.77D-01  7.20D-01  7.67D-01  6.04D-01
 E= -572.894637319789     Delta-E=       -0.000000001052 Rises=F Damp=F
 DIIS: error= 1.50D-07 at cycle  11 NSaved=  11.
 NSaved=11 IEnMin=11 EnMin= -572.894637319789     IErMin=11 ErrMin= 1.50D-07
 ErrMax= 1.50D-07  0.00D+00 EMaxC= 1.00D-01 BMatC= 1.40D-11 BMatP= 1.25D-09
 IDIUse=1 WtCom= 1.00D+00 WtEn= 0.00D+00
 Coeff-Com:  0.165D-05-0.149D-04-0.570D-04-0.134D-03-0.456D-03-0.172D-04
 Coeff-Com:  0.783D-02 0.265D-01 0.101D+00 0.163D+00 0.702D+00
 Coeff:      0.165D-05-0.149D-04-0.570D-04-0.134D-03-0.456D-03-0.172D-04
 Coeff:      0.783D-02 0.265D-01 0.101D+00 0.163D+00 0.702D+00
 Gap=     0.228 Goal=   None    Shift=    0.000
 RMSDP=2.88D-08 MaxDP=1.11D-06 DE=-1.05D-09 OVMax= 5.71D-07

 Cycle  12  Pass 1  IDiag  1:
 RMSU=  1.54D-08    CP:  1.02D+00  5.00D-01  8.17D-01  5.53D-01  7.39D-01
                    CP:  4.93D-01  7.77D-01  7.22D-01  7.67D-01  6.13D-01
                    CP:  8.12D-01
 E= -572.894637319803     Delta-E=       -0.000000000014 Rises=F Damp=F
 DIIS: error= 4.08D-08 at cycle  12 NSaved=  12.
 NSaved=12 IEnMin=12 EnMin= -572.894637319803     IErMin=12 ErrMin= 4.08D-08
 ErrMax= 4.08D-08  0.00D+00 EMaxC= 1.00D-01 BMatC= 1.13D-12 BMatP= 1.40D-11
 IDIUse=1 WtCom= 1.00D+00 WtEn= 0.00D+00
 Coeff-Com:  0.141D-06-0.524D-05-0.241D-04-0.556D-04-0.197D-03-0.393D-04
 Coeff-Com:  0.249D-02 0.925D-02 0.363D-01 0.638D-01 0.329D+00 0.560D+00
 Coeff:      0.141D-06-0.524D-05-0.241D-04-0.556D-04-0.197D-03-0.393D-04
 Coeff:      0.249D-02 0.925D-02 0.363D-01 0.638D-01 0.329D+00 0.560D+00
 Gap=     0.228 Goal=   None    Shift=    0.000
 RMSDP=8.30D-09 MaxDP=3.46D-07 DE=-1.40D-11 OVMax= 2.54D-07

 Error on total polarization charges =  0.00962
 SCF Done:  E(RB-P86) =  -572.894637320     A.U. after   12 cycles
            NFock= 12  Conv=0.83D-08     -V/T= 2.0043
 KE= 5.704487338991D+02 PE=-2.589560541617D+03 EE= 8.244627868720D+02
 Leave Link  502 at Mon Feb 22 21:19:28 2021, MaxMem=   104857600 cpu:             396.9 elap:              12.7
 (Enter /sw/arch/RedHatEnterpriseServer7/EB_production/2019/software/Gaussian/g16.c01/l601.exe)
 Copying SCF densities to generalized density rwf, IOpCl= 0 IROHF=0.

 **********************************************************************

            Population analysis using the SCF Density.

 **********************************************************************

 Orbital symmetries:
       Occupied  (A) (A) (A) (A) (A) (A) (A) (A) (A) (A) (A) (A)
                 (A) (A) (A) (A) (A) (A) (A) (A) (A) (A) (A) (A)
                 (A) (A) (A) (A) (A) (A) (A) (A) (A) (A) (A) (A)
                 (A) (A) (A) (A)
       Virtual   (A) (A) (A) (A) (A) (A) (A) (A) (A) (A) (A) (A)
                 (A) (A) (A) (A) (A) (A) (A) (A) (A) (A) (A) (A)
                 (A) (A) (A) (A) (A) (A) (A) (A) (A) (A) (A) (A)
                 (A) (A) (A) (A) (A) (A) (A) (A) (A) (A) (A) (A)
                 (A) (A) (A) (A) (A) (A) (A) (A) (A) (A) (A) (A)
                 (A) (A) (A) (A) (A) (A) (A) (A) (A) (A) (A) (A)
                 (A) (A) (A) (A) (A) (A) (A) (A) (A) (A) (A) (A)
                 (A) (A) (A) (A) (A) (A) (A) (A) (A) (A) (A) (A)
                 (A) (A) (A) (A) (A) (A) (A) (A) (A) (A) (A) (A)
                 (A) (A) (A) (A) (A) (A) (A) (A) (A) (A) (A) (A)
                 (A) (A) (A) (A) (A) (A) (A) (A) (A) (A) (A) (A)
                 (A) (A) (A) (A) (A) (A) (A) (A) (A) (A) (A) (A)
                 (A) (A) (A) (A) (A) (A) (A) (A) (A) (A) (A) (A)
                 (A) (A) (A) (A) (A) (A) (A) (A) (A) (A) (A) (A)
                 (A) (A) (A) (A) (A) (A) (A) (A) (A) (A) (A) (A)
                 (A) (A) (A) (A) (A) (A) (A) (A) (A) (A) (A) (A)
                 (A) (A) (A) (A) (A) (A) (A) (A) (A) (A) (A) (A)
                 (A) (A) (A) (A) (A) (A)
 The electronic state is 1-A.
 Alpha  occ. eigenvalues --  -18.78885 -18.78643 -18.78550 -18.78397 -18.77783
 Alpha  occ. eigenvalues --  -10.00661  -9.96099  -9.96098  -9.96077  -9.95322
 Alpha  occ. eigenvalues --   -0.99309  -0.96421  -0.95350  -0.93752  -0.92215
 Alpha  occ. eigenvalues --   -0.71290  -0.69230  -0.59681  -0.59023  -0.53010
 Alpha  occ. eigenvalues --   -0.50032  -0.48723  -0.47823  -0.46107  -0.44741
 Alpha  occ. eigenvalues --   -0.41487  -0.41276  -0.39573  -0.38244  -0.36444
 Alpha  occ. eigenvalues --   -0.35122  -0.33598  -0.33115  -0.30521  -0.28104
 Alpha  occ. eigenvalues --   -0.26539  -0.25424  -0.24838  -0.23653  -0.22768
 Alpha virt. eigenvalues --   -0.00017   0.01345   0.01890   0.03923   0.04950
 Alpha virt. eigenvalues --    0.06596   0.07704   0.08348   0.09323   0.09643
 Alpha virt. eigenvalues --    0.10690   0.11565   0.13016   0.13175   0.14135
 Alpha virt. eigenvalues --    0.15644   0.16778   0.18863   0.19097   0.21205
 Alpha virt. eigenvalues --    0.24426   0.25456   0.25908   0.27300   0.27971
 Alpha virt. eigenvalues --    0.28242   0.29388   0.30271   0.30972   0.31972
 Alpha virt. eigenvalues --    0.32104   0.33981   0.35102   0.35569   0.36141
 Alpha virt. eigenvalues --    0.37208   0.39057   0.39312   0.39736   0.40704
 Alpha virt. eigenvalues --    0.40983   0.42315   0.43249   0.44097   0.45086
 Alpha virt. eigenvalues --    0.46307   0.47873   0.49237   0.49722   0.52080
 Alpha virt. eigenvalues --    0.53109   0.54269   0.55573   0.56620   0.59393
 Alpha virt. eigenvalues --    0.59697   0.60944   0.61934   0.65270   0.67851
 Alpha virt. eigenvalues --    0.71602   0.72861   0.75954   0.77360   0.78908
 Alpha virt. eigenvalues --    0.83245   0.87553   0.88780   0.89785   0.97047
 Alpha virt. eigenvalues --    1.13018   1.14383   1.18134   1.21050   1.22786
 Alpha virt. eigenvalues --    1.22886   1.24247   1.25248   1.27659   1.29085
 Alpha virt. eigenvalues --    1.30488   1.31552   1.32045   1.34305   1.35054
 Alpha virt. eigenvalues --    1.35654   1.38594   1.39636   1.40965   1.41689
 Alpha virt. eigenvalues --    1.42456   1.44844   1.45829   1.47082   1.50516
 Alpha virt. eigenvalues --    1.51788   1.55529   1.57446   1.58536   1.61804
 Alpha virt. eigenvalues --    1.62833   1.65231   1.66126   1.69426   1.70735
 Alpha virt. eigenvalues --    1.72865   1.75125   1.76006   1.80078   1.80728
 Alpha virt. eigenvalues --    1.83748   1.85983   1.87343   1.87898   1.90456
 Alpha virt. eigenvalues --    1.92180   1.93521   1.95152   1.96643   1.96974
 Alpha virt. eigenvalues --    1.99699   2.00808   2.03312   2.03932   2.05233
 Alpha virt. eigenvalues --    2.08476   2.10853   2.14121   2.18632   2.21147
 Alpha virt. eigenvalues --    2.23787   2.24833   2.28182   2.30733   2.34888
 Alpha virt. eigenvalues --    2.37730   2.42821   2.43442   2.45163   2.45851
 Alpha virt. eigenvalues --    2.49875   2.52746   2.55388   2.57955   2.58360
 Alpha virt. eigenvalues --    2.61055   2.61082   2.62095   2.62621   2.64021
 Alpha virt. eigenvalues --    2.65535   2.66330   2.68311   2.70351   2.74093
 Alpha virt. eigenvalues --    2.75165   2.77055   2.80307   2.81822   2.83876
 Alpha virt. eigenvalues --    2.84305   2.85745   2.86644   2.87799   2.89881
 Alpha virt. eigenvalues --    2.90099   2.92246   2.92506   2.93908   2.96071
 Alpha virt. eigenvalues --    2.96724   3.00321   3.02078   3.04452   3.06706
 Alpha virt. eigenvalues --    3.07589   3.09361   3.11401   3.13604   3.16162
 Alpha virt. eigenvalues --    3.18523   3.21624   3.24620   3.28014   3.30097
 Alpha virt. eigenvalues --    3.33320   3.37107   3.39117   3.41079   3.46695
 Alpha virt. eigenvalues --    3.80392   3.89086   3.91872   3.93001   3.94718
 Alpha virt. eigenvalues --    3.99957   4.15577   4.16528   4.16836   4.18939
 Alpha virt. eigenvalues --   21.56488  21.68269  21.75653  21.78139  21.87404
 Alpha virt. eigenvalues --   43.12835  43.20547  43.25226  43.28981  43.40899
          Condensed to atoms (all electrons):
               1          2          3          4          5          6
     1  O    7.962174   0.193137  -0.046109  -0.003505   0.003329   0.000236
     2  C    0.193137   5.826415  -0.004944   0.001889   0.076878  -0.007003
     3  C   -0.046109  -0.004944   5.362595   0.211514  -0.172374  -0.015261
     4  O   -0.003505   0.001889   0.211514   8.061002   0.249354  -0.091486
     5  C    0.003329   0.076878  -0.172374   0.249354   5.469250   0.258852
     6  O    0.000236  -0.007003  -0.015261  -0.091486   0.258852   7.980383
     7  C   -0.075852  -0.030965   0.050997  -0.019388  -0.028983  -0.059504
     8  O   -0.000111   0.019272  -0.000437   0.005459  -0.019751  -0.000395
     9  C    0.036990  -0.083960   0.014257  -0.053021  -0.011462  -0.027499
    10  O   -0.007118  -0.093481   0.010691  -0.000215   0.016064  -0.000157
    11  H    0.304945  -0.060058   0.012937  -0.000793   0.000131  -0.000002
    12  H   -0.052427   0.409761  -0.043956   0.006818  -0.001923  -0.000322
    13  H    0.003018  -0.020236   0.362756  -0.025563   0.010978   0.000595
    14  H    0.004279  -0.054486   0.419186  -0.056188  -0.028574   0.038428
    15  H   -0.000220  -0.005642   0.008705  -0.046830   0.365765  -0.057101
    16  H    0.000034   0.002256  -0.001798   0.007018  -0.023072   0.288580
    17  H    0.031632  -0.025774  -0.004013   0.003937  -0.041071   0.004749
    18  H    0.000088  -0.001209  -0.000037   0.000458  -0.002809   0.001048
    19  H    0.010045  -0.075209  -0.004440   0.001040  -0.001863   0.017412
    20  H   -0.000707   0.019146  -0.001277  -0.000012   0.001698   0.000042
               7          8          9         10         11         12
     1  O   -0.075852  -0.000111   0.036990  -0.007118   0.304945  -0.052427
     2  C   -0.030965   0.019272  -0.083960  -0.093481  -0.060058   0.409761
     3  C    0.050997  -0.000437   0.014257   0.010691   0.012937  -0.043956
     4  O   -0.019388   0.005459  -0.053021  -0.000215  -0.000793   0.006818
     5  C   -0.028983  -0.019751  -0.011462   0.016064   0.000131  -0.001923
     6  O   -0.059504  -0.000395  -0.027499  -0.000157  -0.000002  -0.000322
     7  C    5.940172   0.247038  -0.174107  -0.010803  -0.007214   0.015328
     8  O    0.247038   7.953051  -0.091245  -0.002985  -0.000136  -0.000022
     9  C   -0.174107  -0.091245   5.976757   0.228219   0.010948  -0.068573
    10  O   -0.010803  -0.002985   0.228219   7.963388   0.016060   0.002238
    11  H   -0.007214  -0.000136   0.010948   0.016060   0.438370  -0.010335
    12  H    0.015328  -0.000022  -0.068573   0.002238  -0.010335   0.573812
    13  H   -0.001962   0.000031   0.010222  -0.000170  -0.000340  -0.005642
    14  H   -0.001346   0.000118  -0.013573  -0.000168  -0.000719   0.006812
    15  H   -0.053504  -0.008669   0.019426  -0.000637   0.000021   0.000124
    16  H    0.012438  -0.000772  -0.000629   0.000021   0.000001  -0.000062
    17  H    0.345473  -0.054671  -0.015865  -0.001751   0.001522   0.000332
    18  H   -0.042147   0.303481   0.015359  -0.000565  -0.000003   0.000063
    19  H   -0.085609   0.003019   0.420438  -0.056971   0.002192  -0.007489
    20  H    0.004126   0.014847  -0.056177   0.311894  -0.000754  -0.000463
              13         14         15         16         17         18
     1  O    0.003018   0.004279  -0.000220   0.000034   0.031632   0.000088
     2  C   -0.020236  -0.054486  -0.005642   0.002256  -0.025774  -0.001209
     3  C    0.362756   0.419186   0.008705  -0.001798  -0.004013  -0.000037
     4  O   -0.025563  -0.056188  -0.046830   0.007018   0.003937   0.000458
     5  C    0.010978  -0.028574   0.365765  -0.023072  -0.041071  -0.002809
     6  O    0.000595   0.038428  -0.057101   0.288580   0.004749   0.001048
     7  C   -0.001962  -0.001346  -0.053504   0.012438   0.345473  -0.042147
     8  O    0.000031   0.000118  -0.008669  -0.000772  -0.054671   0.303481
     9  C    0.010222  -0.013573   0.019426  -0.000629  -0.015865   0.015359
    10  O   -0.000170  -0.000168  -0.000637   0.000021  -0.001751  -0.000565
    11  H   -0.000340  -0.000719   0.000021   0.000001   0.001522  -0.000003
    12  H   -0.005642   0.006812   0.000124  -0.000062   0.000332   0.000063
    13  H    0.518769  -0.021834   0.000048  -0.000238  -0.000259  -0.000011
    14  H   -0.021834   0.547128   0.000228  -0.000568   0.000974  -0.000000
    15  H    0.000048   0.000228   0.604163  -0.013632  -0.008922   0.006022
    16  H   -0.000238  -0.000568  -0.013632   0.438051  -0.000405  -0.000270
    17  H   -0.000259   0.000974  -0.008922  -0.000405   0.593846  -0.005571
    18  H   -0.000011  -0.000000   0.006022  -0.000270  -0.005571   0.429572
    19  H   -0.000476   0.003139  -0.000000  -0.000269   0.016405  -0.000368
    20  H    0.000030  -0.000001  -0.000117   0.000003  -0.004438  -0.000726
              19         20
     1  O    0.010045  -0.000707
     2  C   -0.075209   0.019146
     3  C   -0.004440  -0.001277
     4  O    0.001040  -0.000012
     5  C   -0.001863   0.001698
     6  O    0.017412   0.000042
     7  C   -0.085609   0.004126
     8  O    0.003019   0.014847
     9  C    0.420438  -0.056177
    10  O   -0.056971   0.311894
    11  H    0.002192  -0.000754
    12  H   -0.007489  -0.000463
    13  H   -0.000476   0.000030
    14  H    0.003139  -0.000001
    15  H   -0.000000  -0.000117
    16  H   -0.000269   0.000003
    17  H    0.016405  -0.004438
    18  H   -0.000368  -0.000726
    19  H    0.597923  -0.010488
    20  H   -0.010488   0.423624
 Mulliken charges:
               1
     1  O   -0.363859
     2  C   -0.085788
     3  C   -0.158993
     4  O   -0.251487
     5  C   -0.120416
     6  O   -0.331597
     7  C   -0.024184
     8  O   -0.367123
     9  C   -0.136503
    10  O   -0.373556
    11  H    0.293230
    12  H    0.175927
    13  H    0.170284
    14  H    0.157164
    15  H    0.190773
    16  H    0.293311
    17  H    0.163871
    18  H    0.297626
    19  H    0.171570
    20  H    0.299750
 Sum of Mulliken charges =  -0.00000
 Mulliken charges with hydrogens summed into heavy atoms:
               1
     1  O   -0.070629
     2  C    0.090139
     3  C    0.168455
     4  O   -0.251487
     5  C    0.070357
     6  O   -0.038286
     7  C    0.139687
     8  O   -0.069497
     9  C    0.035068
    10  O   -0.073806
 Electronic spatial extent (au):  <R**2>=           1342.4625
 Charge=              0.0000 electrons
 Dipole moment (field-independent basis, Debye):
    X=             -2.0913    Y=              0.2416    Z=              0.3118  Tot=              2.1282
 Quadrupole moment (field-independent basis, Debye-Ang):
   XX=            -54.3518   YY=            -58.6673   ZZ=            -59.7326
   XY=              1.9443   XZ=              6.7431   YZ=             -8.3228
 Traceless Quadrupole moment (field-independent basis, Debye-Ang):
   XX=              3.2321   YY=             -1.0834   ZZ=             -2.1487
   XY=              1.9443   XZ=              6.7431   YZ=             -8.3228
 Octapole moment (field-independent basis, Debye-Ang**2):
  XXX=            -23.6298  YYY=              9.2554  ZZZ=             -2.0941  XYY=             -4.8198
  XXY=             -5.4889  XXZ=             -9.5095  XZZ=             -5.6873  YZZ=              8.4186
  YYZ=              6.7261  XYZ=              5.1926
 Hexadecapole moment (field-independent basis, Debye-Ang**3):
 XXXX=           -654.9963 YYYY=           -613.6905 ZZZZ=           -200.2038 XXXY=             30.9185
 XXXZ=              3.7321 YYYX=              6.7758 YYYZ=            -14.6983 ZZZX=              4.3845
 ZZZY=             -8.6950 XXYY=           -228.6440 XXZZ=           -155.0252 YYZZ=           -140.7576
 XXYZ=            -37.2787 YYXZ=              9.2323 ZZXY=             -2.1048
 N-N= 6.217543835260D+02 E-N=-2.589560542852D+03  KE= 5.704487338991D+02
 No NMR shielding tensors so no spin-rotation constants.
 Leave Link  601 at Mon Feb 22 21:19:29 2021, MaxMem=   104857600 cpu:               8.5 elap:               0.3
 (Enter /sw/arch/RedHatEnterpriseServer7/EB_production/2019/software/Gaussian/g16.c01/l701.exe)
 ... and contract with generalized density number  0.
 Compute integral first derivatives.
 R6Disp: Adding Grimme-D3 dispersion energy 1st derivatives to the gradient.
 PrsmSu:  requested number of processors reduced to:  29 ShMem   1 Linda.
 D1PCM: PCM CHGder 1st derivatives, ID1Alg=3 FixD1E=F DoIter=F DoCFld=F I1PDM=0.
 GePol: Maximum number of non-zero 1st derivatives   =     177
 CoulSu:  requested number of processors reduced to:  29 ShMem   1 Linda.
 CoulSu:  requested number of processors reduced to:  30 ShMem   1 Linda.
 Leave Link  701 at Mon Feb 22 21:19:30 2021, MaxMem=   104857600 cpu:              24.3 elap:               0.9
 (Enter /sw/arch/RedHatEnterpriseServer7/EB_production/2019/software/Gaussian/g16.c01/l702.exe)
 L702 exits ... SP integral derivatives will be done elsewhere.
 Leave Link  702 at Mon Feb 22 21:19:30 2021, MaxMem=   104857600 cpu:               0.6 elap:               0.0
 (Enter /sw/arch/RedHatEnterpriseServer7/EB_production/2019/software/Gaussian/g16.c01/l703.exe)
 Integral derivatives from FoFJK, PRISM(SPDF).
 Compute integral first derivatives, UseDBF=F ICtDFT=           0.
 Calling FoFJK, ICntrl=      2527 FMM=F ISym2X=0 I1Cent= 0 IOpClX= 0 NMat=1 NMatS=1 NMatT=0.
 FoFJK:  IHMeth= 1 ICntrl=    2527 DoSepK=F KAlg= 0 I1Cent=           0 FoldK=F
 IRaf=         0 NMat=       1 IRICut=       1 DoRegI=T DoRafI=F ISym2E= 0 IDoP0=0 IntGTp=1.
 FoFCou: FMM=F IPFlag=           0 FMFlag=      100000 FMFlg1=         800
         NFxFlg=           0 DoJE=F BraDBF=F KetDBF=F FulRan=T
         wScrn=  0.000000 ICntrl=      2527 IOpCl=  0 I1Cent=           0 NGrid=           0
         NMat0=    1 NMatS0=      1 NMatT0=    0 NMatD0=    1 NMtDS0=    0 NMtDT0=    0
 Symmetry not used in FoFCou.
 Leave Link  703 at Mon Feb 22 21:19:32 2021, MaxMem=   104857600 cpu:              66.4 elap:               2.1
 (Enter /sw/arch/RedHatEnterpriseServer7/EB_production/2019/software/Gaussian/g16.c01/l716.exe)
 Dipole        =-8.22796952D-01 9.50371089D-02 1.22689829D-01
 ***** Axes restored to original set *****
 -------------------------------------------------------------------
 Center     Atomic                   Forces (Hartrees/Bohr)
 Number     Number              X              Y              Z
 -------------------------------------------------------------------
      1        8           0.007179093    0.004938117    0.004551718
      2        6           0.000105869   -0.004551578   -0.008225546
      3        6          -0.001319712    0.019509694   -0.018126996
      4        8           0.023685553   -0.000430960    0.007247546
      5        6          -0.021849575   -0.000253639    0.011112958
      6        8          -0.002782081    0.000013126   -0.006761719
      7        6          -0.012575886   -0.013329696    0.003364990
      8        8           0.000022823    0.003125233   -0.007025459
      9        6           0.011186206   -0.008055994   -0.003767788
     10        8           0.000740784    0.006851636    0.000928838
     11        1           0.004069925   -0.003434970    0.000894045
     12        1          -0.010677897   -0.001619973   -0.002443967
     13        1           0.010298283   -0.001761369    0.001925758
     14        1          -0.011357123    0.000741541   -0.000831218
     15        1           0.009679642   -0.001467362    0.011187237
     16        1          -0.002060580    0.002678980   -0.002611060
     17        1           0.002580745   -0.000392322    0.010618907
     18        1          -0.003712219    0.004656091   -0.003794463
     19        1          -0.003422023   -0.009358216   -0.002533939
     20        1           0.000208171    0.002141663    0.004290158
 -------------------------------------------------------------------
 Cartesian Forces:  Max     0.023685553 RMS     0.007911263
 Leave Link  716 at Mon Feb 22 21:19:33 2021, MaxMem=   104857600 cpu:               0.9 elap:               0.1
 (Enter /sw/arch/RedHatEnterpriseServer7/EB_production/2019/software/Gaussian/g16.c01/l103.exe)

 GradGradGradGradGradGradGradGradGradGradGradGradGradGradGradGradGradGrad
 Berny optimization.
 FormGI is forming the generalized inverse of G from B-inverse, IUseBI=4.
 Internal  Forces:  Max     0.014176741 RMS     0.005448728
 Search for a local minimum.
 Step number   1 out of a maximum of  119
 All quantities printed in internal units (Hartrees-Bohrs-Radians)
 RMS Force = .54487D-02 SwitMx=.10000D-02 MixMth= 1
 Mixed Optimization -- RFO/linear search
 Second derivative matrix not updated -- first step.
 ITU=  0
     Eigenvalues ---    0.00472   0.00492   0.01172   0.01308   0.01343
     Eigenvalues ---    0.01364   0.01388   0.02815   0.03181   0.04519
     Eigenvalues ---    0.04645   0.04812   0.05036   0.05113   0.05725
     Eigenvalues ---    0.06407   0.06567   0.06928   0.07089   0.07175
     Eigenvalues ---    0.09257   0.10033   0.10505   0.11529   0.12651
     Eigenvalues ---    0.16000   0.16000   0.16000   0.16000   0.16217
     Eigenvalues ---    0.16885   0.17341   0.19099   0.20833   0.26140
     Eigenvalues ---    0.26727   0.26765   0.27510   0.34287   0.34346
     Eigenvalues ---    0.34398   0.34449   0.34506   0.34686   0.37600
     Eigenvalues ---    0.38051   0.41133   0.41520   0.41753   0.42020
     Eigenvalues ---    0.51291   0.51533   0.51577   0.51626
 RFO step:  Lambda=-1.91338346D-02 EMin= 4.71699126D-03
 Linear search not attempted -- first point.
 Iteration  1 RMS(Cart)=  0.05878189 RMS(Int)=  0.00207710
 Iteration  2 RMS(Cart)=  0.00238826 RMS(Int)=  0.00063615
 Iteration  3 RMS(Cart)=  0.00000327 RMS(Int)=  0.00063614
 Iteration  4 RMS(Cart)=  0.00000000 RMS(Int)=  0.00063614
 ITry= 1 IFail=0 DXMaxC= 2.48D-01 DCOld= 1.00D+10 DXMaxT= 3.00D-01 DXLimC= 3.00D+00 Rises=F
 Variable       Old X    -DE/DX   Delta X   Delta X   Delta X     New X
                                 (Linear)    (Quad)   (Total)
    R1        2.69238   0.01123   0.00000   0.02572   0.02572   2.71811
    R2        1.85285  -0.00430   0.00000  -0.00808  -0.00808   1.84477
    R3        2.93090  -0.01417   0.00000  -0.04735  -0.04724   2.88366
    R4        2.93545  -0.01192   0.00000  -0.03685  -0.03694   2.89851
    R5        2.06579   0.00871   0.00000   0.02395   0.02395   2.08974
    R6        2.72537   0.00065   0.00000  -0.00035  -0.00021   2.72516
    R7        2.06749   0.00130   0.00000   0.00358   0.00358   2.07107
    R8        2.06188   0.00802   0.00000   0.02192   0.02192   2.08381
    R9        2.72917  -0.00893   0.00000  -0.02461  -0.02452   2.70465
   R10        2.68898   0.00715   0.00000   0.01629   0.01629   2.70526
   R11        2.93361  -0.00349   0.00000  -0.01294  -0.01304   2.92057
   R12        2.06848   0.00532   0.00000   0.01469   0.01469   2.08318
   R13        1.85050  -0.00336   0.00000  -0.00629  -0.00629   1.84421
   R14        2.69539   0.01209   0.00000   0.02784   0.02784   2.72323
   R15        2.93721  -0.01418   0.00000  -0.04590  -0.04605   2.89116
   R16        2.06484   0.00655   0.00000   0.01798   0.01798   2.08282
   R17        1.84959  -0.00370   0.00000  -0.00692  -0.00692   1.84268
   R18        2.70043   0.00879   0.00000   0.02043   0.02043   2.72086
   R19        2.06664   0.00723   0.00000   0.01990   0.01990   2.08654
   R20        1.85007  -0.00358   0.00000  -0.00670  -0.00670   1.84337
    A1        1.83129   0.00509   0.00000   0.02839   0.02839   1.85968
    A2        1.92772  -0.00430   0.00000  -0.03133  -0.03137   1.89635
    A3        1.93282   0.00148   0.00000   0.00339   0.00269   1.93551
    A4        1.87145   0.00395   0.00000   0.05523   0.05533   1.92677
    A5        1.92640  -0.00023   0.00000  -0.01498  -0.01525   1.91115
    A6        1.89706   0.00040   0.00000  -0.00269  -0.00261   1.89444
    A7        1.90714  -0.00119   0.00000  -0.00762  -0.00798   1.89915
    A8        1.94065   0.00683   0.00000   0.02193   0.02144   1.96209
    A9        1.92910   0.00101   0.00000  -0.00548  -0.00634   1.92276
   A10        1.90799  -0.00562   0.00000  -0.01451  -0.01594   1.89205
   A11        1.95568  -0.01026   0.00000  -0.09078  -0.09080   1.86488
   A12        1.84639   0.00571   0.00000   0.07573   0.07548   1.92187
   A13        1.88078   0.00235   0.00000   0.01759   0.01868   1.89946
   A14        1.99282  -0.01167   0.00000  -0.05045  -0.04981   1.94301
   A15        1.88550   0.01187   0.00000   0.08029   0.08061   1.96612
   A16        1.94576   0.00101   0.00000  -0.00999  -0.01059   1.93517
   A17        1.92271  -0.00969   0.00000  -0.09236  -0.09379   1.82892
   A18        1.91648  -0.01148   0.00000  -0.02898  -0.02889   1.88759
   A19        1.86815   0.00535   0.00000   0.05379   0.05478   1.92293
   A20        1.92324   0.00318   0.00000   0.00123  -0.00017   1.92307
   A21        1.82995   0.00467   0.00000   0.02607   0.02607   1.85602
   A22        1.90741   0.00784   0.00000   0.05645   0.05657   1.96398
   A23        1.92763   0.00271   0.00000   0.00771   0.00795   1.93558
   A24        1.91231  -0.00400   0.00000  -0.02674  -0.02780   1.88451
   A25        1.91673  -0.00910   0.00000  -0.04637  -0.04660   1.87013
   A26        1.88357   0.00366   0.00000   0.04307   0.04231   1.92588
   A27        1.91563  -0.00107   0.00000  -0.03307  -0.03316   1.88247
   A28        1.83355   0.01058   0.00000   0.05905   0.05905   1.89260
   A29        1.92931  -0.00219   0.00000  -0.01580  -0.01613   1.91318
   A30        1.91797  -0.00641   0.00000  -0.04779  -0.04763   1.87034
   A31        1.90722   0.00225   0.00000   0.00593   0.00623   1.91345
   A32        1.92500   0.00469   0.00000   0.01356   0.01243   1.93743
   A33        1.90913  -0.00155   0.00000  -0.00563  -0.00598   1.90316
   A34        1.87429   0.00337   0.00000   0.05174   0.05176   1.92605
   A35        1.83547   0.00564   0.00000   0.03151   0.03151   1.86698
    D1       -3.12245  -0.00195   0.00000  -0.04914  -0.04885   3.11189
    D2        1.02123   0.00028   0.00000  -0.01090  -0.01068   1.01055
    D3       -1.05811  -0.00152   0.00000  -0.03708  -0.03760  -1.09571
    D4       -1.18527   0.00549   0.00000   0.06738   0.06720  -1.11808
    D5        0.99833  -0.00208   0.00000  -0.03844  -0.03860   0.95972
    D6        3.06573  -0.00206   0.00000  -0.02911  -0.02929   3.03644
    D7        0.95799   0.00428   0.00000   0.04007   0.04030   0.99829
    D8        3.14159  -0.00329   0.00000  -0.06575  -0.06551   3.07609
    D9       -1.07419  -0.00327   0.00000  -0.05642  -0.05619  -1.13038
   D10        3.04931   0.00293   0.00000   0.02003   0.02002   3.06933
   D11       -1.05028  -0.00464   0.00000  -0.08579  -0.08578  -1.13606
   D12        1.01713  -0.00462   0.00000  -0.07646  -0.07647   0.94066
   D13        1.22808  -0.00289   0.00000  -0.06077  -0.06045   1.16764
   D14       -0.90069  -0.00306   0.00000  -0.03547  -0.03576  -0.93645
   D15       -2.95313  -0.00474   0.00000  -0.07384  -0.07389  -3.02702
   D16       -0.91220   0.00171   0.00000  -0.01304  -0.01269  -0.92489
   D17       -3.04097   0.00153   0.00000   0.01227   0.01199  -3.02898
   D18        1.18978  -0.00014   0.00000  -0.02611  -0.02614   1.16363
   D19       -2.99742   0.00210   0.00000   0.00418   0.00441  -2.99301
   D20        1.15699   0.00193   0.00000   0.02949   0.02910   1.18609
   D21       -0.89544   0.00026   0.00000  -0.00889  -0.00904  -0.90448
   D22       -1.02758  -0.00157   0.00000  -0.03372  -0.03429  -1.06187
   D23        3.08697  -0.00041   0.00000   0.02455   0.02299   3.10996
   D24        1.04203  -0.00126   0.00000   0.00569   0.00775   1.04978
   D25       -1.08770   0.00446   0.00000   0.00510   0.00352  -1.08419
   D26        1.01952  -0.00139   0.00000   0.01543   0.01444   1.03396
   D27       -3.12277  -0.00345   0.00000  -0.05480  -0.05201   3.10840
   D28       -1.05284   0.00087   0.00000   0.00543   0.00431  -1.04854
   D29        3.10494  -0.00084   0.00000  -0.01499  -0.01529   3.08965
   D30        1.01734  -0.00140   0.00000  -0.03197  -0.03054   0.98680
   D31       -3.05025  -0.00165   0.00000  -0.02657  -0.02683  -3.07708
   D32       -0.93981  -0.00617   0.00000  -0.04284  -0.04274  -0.98255
   D33        1.17245  -0.00836   0.00000  -0.09639  -0.09606   1.07639
   D34       -0.96126   0.00628   0.00000   0.04835   0.04789  -0.91337
   D35        1.14919   0.00176   0.00000   0.03209   0.03198   1.18117
   D36       -3.02175  -0.00043   0.00000  -0.02146  -0.02133  -3.04308
   D37        1.09235   0.00779   0.00000   0.09734   0.09704   1.18939
   D38       -3.08039   0.00327   0.00000   0.08108   0.08113  -2.99925
   D39       -0.96813   0.00108   0.00000   0.02753   0.02782  -0.94032
   D40       -1.04720  -0.00081   0.00000  -0.03641  -0.03782  -1.08502
   D41        3.11892  -0.00341   0.00000  -0.05261  -0.05274   3.06618
   D42        1.03120   0.00094   0.00000  -0.01165  -0.01011   1.02109
   D43        0.90268   0.00006   0.00000   0.02458   0.02471   0.92739
   D44        3.02732  -0.00632   0.00000  -0.03704  -0.03709   2.99023
   D45       -1.19815  -0.00036   0.00000   0.03076   0.03071  -1.16743
   D46        3.00757   0.00566   0.00000   0.06977   0.06945   3.07702
   D47       -1.15098  -0.00072   0.00000   0.00815   0.00766  -1.14332
   D48        0.90674   0.00524   0.00000   0.07595   0.07546   0.98220
   D49       -1.20759   0.00399   0.00000   0.07441   0.07481  -1.13279
   D50        0.91704  -0.00239   0.00000   0.01279   0.01302   0.93006
   D51        2.97476   0.00357   0.00000   0.08059   0.08082   3.05558
   D52        3.12096  -0.00222   0.00000  -0.03496  -0.03463   3.08633
   D53        0.98962   0.00168   0.00000   0.00762   0.00809   0.99771
   D54       -1.08942  -0.00112   0.00000  -0.02416  -0.02496  -1.11438
         Item               Value     Threshold  Converged?
 Maximum Force            0.014177     0.000450     NO 
 RMS     Force            0.005449     0.000300     NO 
 Maximum Displacement     0.248321     0.001800     NO 
 RMS     Displacement     0.059424     0.001200     NO 
 Predicted change in Energy=-1.132872D-02
 Lowest energy point so far.  Saving SCF results.
 GradGradGradGradGradGradGradGradGradGradGradGradGradGradGradGradGradGrad

 Leave Link  103 at Mon Feb 22 21:19:33 2021, MaxMem=   104857600 cpu:              11.0 elap:               0.4
 (Enter /sw/arch/RedHatEnterpriseServer7/EB_production/2019/software/Gaussian/g16.c01/l202.exe)
                          Input orientation:                          
 ---------------------------------------------------------------------
 Center     Atomic      Atomic             Coordinates (Angstroms)
 Number     Number       Type             X           Y           Z
 ---------------------------------------------------------------------
      1          8           0       -2.307878    0.555760    2.723747
      2          6           0       -3.273931   -0.092935    1.878278
      3          6           0       -3.065273   -1.601940    1.967363
      4          8           0       -1.781036   -2.010823    1.454346
      5          6           0       -1.638833   -1.666234    0.072507
      6          8           0       -2.601277   -2.320949   -0.760813
      7          6           0       -1.782714   -0.141154   -0.132436
      8          8           0       -1.730261    0.236553   -1.522138
      9          6           0       -3.117811    0.360413    0.421323
     10          8           0       -3.170918    1.799240    0.416058
     11          1           0       -2.450319    1.516223    2.622711
     12          1           0       -4.300559    0.140708    2.216409
     13          1           0       -3.108292   -1.928251    3.012739
     14          1           0       -3.873695   -2.098979    1.405794
     15          1           0       -0.620160   -1.991556   -0.195244
     16          1           0       -2.455637   -3.279293   -0.647796
     17          1           0       -0.975477    0.355307    0.430323
     18          1           0       -0.857014   -0.013280   -1.876885
     19          1           0       -3.939574   -0.056465   -0.187007
     20          1           0       -3.020429    2.086338   -0.503979
 ---------------------------------------------------------------------
                    Distance matrix (angstroms):
                    1          2          3          4          5
     1  O    0.000000
     2  C    1.438360   0.000000
     3  C    2.408616   1.525965   0.000000
     4  O    2.911406   2.467134   1.442095   0.000000
     5  C    3.523343   2.899935   2.372624   1.431238   0.000000
     6  O    4.528100   3.518709   2.859232   2.382415   1.431563
     7  C    2.986514   2.503802   2.861469   2.452252   1.545501
     8  O    4.296868   3.748908   4.164004   3.729978   2.484321
     9  C    2.448532   1.533825   2.498766   2.911506   2.533051
    10  O    2.759802   2.393538   3.739750   4.186454   3.804579
    11  H    0.976211   1.954970   3.245087   3.775324   4.158134
    12  H    2.097722   1.105842   2.150530   3.399680   3.866024
    13  H    2.625735   2.163983   1.095965   2.048662   3.297412
    14  H    3.352077   2.146432   1.102704   2.095078   2.638092
    15  H    4.225839   3.866103   3.287437   2.017214   1.102370
    16  H    5.108499   4.147715   3.166106   2.546194   1.946270
    17  H    2.659938   2.753250   3.249700   2.701133   2.157475
    18  H    4.857430   4.466440   4.709405   3.992630   2.672757
    19  H    3.392601   2.170211   2.791811   3.342581   2.819949
    20  H    3.642611   3.238617   4.439925   4.707214   4.040166
                    6          7          8          9         10
     6  O    0.000000
     7  C    2.411723   0.000000
     8  O    2.806973   1.441071   0.000000
     9  C    2.975560   1.529935   2.391166   0.000000
    10  O    4.322669   2.448077   2.876471   1.439816   0.000000
    11  H    5.118096   3.283813   4.397250   2.574403   2.338521
    12  H    4.220328   3.454860   4.537880   2.160902   2.695938
    13  H    3.827658   3.852660   5.210609   3.457385   4.543221
    14  H    2.522400   3.251373   4.315299   2.754842   4.082840
    15  H    2.086430   2.186198   2.820893   3.485710   4.609792
    16  H    0.975914   3.250591   3.694837   3.850838   5.237835
    17  H    3.350279   1.102181   2.096641   2.142359   2.627757
    18  H    3.100549   1.978984   0.975102   3.245399   3.727864
    19  H    2.692244   2.159212   2.597979   1.104150   2.097179
    20  H    4.434618   2.575209   2.474447   1.960735   0.975469
                   11         12         13         14         15
    11  H    0.000000
    12  H    2.341050   0.000000
    13  H    3.528378   2.517187   0.000000
    14  H    4.071434   2.419815   1.788089   0.000000
    15  H    4.857454   4.889576   4.060291   3.627720   0.000000
    16  H    5.804586   4.827403   3.956108   2.760663   2.287367
    17  H    2.886079   3.780519   4.053690   3.921062   2.454658
    18  H    5.012421   5.351334   5.713474   4.922041   2.607219
    19  H    3.547639   2.438360   3.799077   2.590988   3.842285
    20  H    3.228969   3.581162   5.337785   4.678907   4.741922
                   16         17         18         19         20
    16  H    0.000000
    17  H    4.069832   0.000000
    18  H    3.838372   2.339465   0.000000
    19  H    3.577851   3.055573   3.515641   0.000000
    20  H    5.397192   2.837467   3.312648   2.353063   0.000000
 Stoichiometry    C5H10O5
 Framework group  C1[X(C5H10O5)]
 Deg. of freedom    54
 Full point group                 C1      NOp   1
 RotChk:  IX=0 Diff= 7.81D-02
 Largest Abelian subgroup         C1      NOp   1
 Largest concise Abelian subgroup C1      NOp   1
                         Standard orientation:                         
 ---------------------------------------------------------------------
 Center     Atomic      Atomic             Coordinates (Angstroms)
 Number     Number       Type             X           Y           Z
 ---------------------------------------------------------------------
      1          8           0        2.040951   -0.832656   -0.792364
      2          6           0        1.300149   -0.723613    0.435725
      3          6           0        0.210956   -1.792322    0.445210
      4          8           0       -0.762317   -1.594989   -0.600465
      5          6           0       -1.431434   -0.337806   -0.458274
      6          8           0       -2.169843   -0.241469    0.764363
      7          6           0       -0.422077    0.831651   -0.504548
      8          8           0       -1.047699    2.110180   -0.279496
      9          6           0        0.657911    0.663179    0.565940
     10          8           0        1.707135    1.634768    0.397970
     11          1           0        2.708657   -0.120641   -0.778539
     12          1           0        1.965165   -0.891519    1.303162
     13          1           0        0.652108   -2.782832    0.285789
     14          1           0       -0.283114   -1.777197    1.430918
     15          1           0       -2.115654   -0.284049   -1.320928
     16          1           0       -2.829279   -0.960600    0.744275
     17          1           0        0.072657    0.815173   -1.489317
     18          1           0       -1.692915    2.267739   -0.993425
     19          1           0        0.195593    0.765737    1.563381
     20          1           0        1.287938    2.514977    0.430313
 ---------------------------------------------------------------------
 Rotational constants (GHZ):           1.6423741           1.4332419           0.9198206
 Leave Link  202 at Mon Feb 22 21:19:33 2021, MaxMem=   104857600 cpu:               0.7 elap:               0.1
 (Enter /sw/arch/RedHatEnterpriseServer7/EB_production/2019/software/Gaussian/g16.c01/l301.exe)
 Standard basis: TZVP (5D, 7F)
 Ernie: Thresh=  0.10000D-02 Tol=  0.10000D-05 Strict=F.
 There are   260 symmetry adapted cartesian basis functions of A   symmetry.
 There are   250 symmetry adapted basis functions of A   symmetry.
   250 basis functions,   430 primitive gaussians,   260 cartesian basis functions
    40 alpha electrons       40 beta electrons
       nuclear repulsion energy       624.3591470636 Hartrees.
 IExCor=  404 DFT=T Ex=B Corr=P86 ExCW=0 ScaHFX=  0.000000
[...]
   11   H     11    1.3000  1.000      2.539503      0.009850     -0.819701
   12   H     12    1.3000  1.000      1.914674     -0.976515      1.313025
   13   H     13    1.3000  1.000      0.612130     -2.805139      0.102593
   14   H     14    1.3000  1.000     -0.286283     -1.918094      1.372600
   15   H     15    1.3000  1.000     -2.165594     -0.209773     -1.286912
   16   H     16    1.3000  1.000     -2.893201     -0.831127      0.773337
   17   H     17    1.3000  1.000      0.085066      0.752444     -1.479490
   18   H     18    1.3000  1.000     -1.325349      2.451395     -1.149704
   19   H     19    1.3000  1.000      0.165651      0.686328      1.579232
   20   H     20    1.3000  1.000      1.270703      2.436046      0.253484
 ------------------------------------------------------------------------------
 One-electron integrals computed using PRISM.
 PrsmSu:  requested number of processors reduced to:  28 ShMem   1 Linda.
 NBasis=   250 RedAO= T EigKep=  7.74D-05  NBF=   250
 NBsUse=   250 1.00D-06 EigRej= -1.00D+00 NBFU=   250
 Initial guess from the checkpoint file:  "SRBFZHDQGSBBOR-SQOUGZDYSA-N.chk"
 B after Tr=     0.000000   -0.000000    0.000000
         Rot=    1.000000    0.000000    0.000000   -0.000000 Ang=   0.00 deg.
 Requested convergence on RMS density matrix=1.00D-08 within 128 cycles.
 Requested convergence on MAX density matrix=1.00D-06.
 Requested convergence on             energy=1.00D-06.
 No special actions if energy rises.
 Inv3:  Mode=1 IEnd=     4399563.
 Iteration    1 A*A^-1 deviation from unit magnitude is 4.66D-15 for    431.
 Iteration    1 A*A^-1 deviation from orthogonality  is 3.08D-15 for    464    279.
 Iteration    1 A^-1*A deviation from unit magnitude is 4.44D-15 for    431.
 Iteration    1 A^-1*A deviation from orthogonality  is 4.69D-15 for    607    431.
 Error on nuclear    polarization charges =  0.01722
 Error on electronic polarization charges = -0.04404
 SCF Done:  E(RB-P86) =  -572.894781258     A.U. after   11 cycles
            NFock= 11  Conv=0.32D-08     -V/T= 2.0043
 --------------------------------------------------------------------
 Variational C-PCM results
 =========================
 <psi(f)|   H    |psi(f)>                     (a.u.) =    -572.863414
 <psi(f)|H+V(f)/2|psi(f)>                     (a.u.) =    -572.894781
 Total free energy in solution:
 - with all non electrostatic terms           (a.u.) =    -572.884298
 --------------------------------------------------------------------
 (Polarized solute)-Solvent               (kcal/mol) =     -19.68
 --------------------------------------------------------------------
 Cavitation energy                        (kcal/mol) =      21.94
 Dispersion energy                        (kcal/mol) =     -16.74
 Repulsion energy                         (kcal/mol) =       1.38
 Total non electrostatic                  (kcal/mol) =       6.58
 --------------------------------------------------------------------
 Partition over spheres:
 Sphere  on Atom  Surface  Charge   GEl     GCav    GDR
    1      O1      15.40   0.185   -3.32    1.91   -1.39
    2      C2       5.41  -0.013   -0.09    0.64   -0.15
    3      C3      10.73  -0.013   -0.15    1.26   -0.67
    4      O4      10.91   0.143   -1.92    1.36   -1.06
    5      C5       6.87  -0.027   -0.40    0.81   -0.19
    6      O6      13.89   0.148   -1.93    1.73   -1.04
    7      C7       3.96  -0.024   -0.41    0.47   -0.05
    8      O8      14.22   0.140   -1.71    1.77   -1.12
    9      C9       4.26  -0.008   -0.03    0.50   -0.13
   10      O10     14.53   0.146   -1.60    1.81   -1.36
   11      H11      6.49  -0.081   -0.48    0.92   -0.66
   12      H12      6.63  -0.037   -0.19    0.94   -0.94
   13      H13      6.51  -0.043   -0.10    0.92   -0.83
   14      H14      6.24  -0.032   -0.21    0.88   -0.67
   15      H15      6.57  -0.047   -0.60    0.93   -0.93
   16      H16      8.54  -0.133   -2.39    1.21   -1.02
   17      H17      6.16  -0.036   -0.27    0.87   -0.70
   18      H18      8.59  -0.134   -2.89    1.21   -1.03
   19      H19      6.17  -0.038   -0.00    0.87   -0.70
   20      H20      6.84  -0.094   -1.00    0.97   -0.72
 --------------------------------------------------------------------
 - cavitation energy not included in the total energy.
 - dispersion energy not included in the total energy.
 - repulsion  energy not included in the total energy.
 After PCM corrections, the energy is  -572.894781258     a.u.
 --------------------------------------------------------------------
 Writing COSMO formatted file "SRBFZHDQGSBBOR-SQOUGZDYSA-N.cosmo"
 Recomputed dielectric energy= -0.031486 old= -0.031367 diff=-1.19D-04

 **********************************************************************

            Population analysis using the SCF Density.

 **********************************************************************

 Orbital symmetries:
       Occupied  (A) (A) (A) (A) (A) (A) (A) (A) (A) (A) (A) (A)
                 (A) (A) (A) (A) (A) (A) (A) (A) (A) (A) (A) (A)
                 (A) (A) (A) (A) (A) (A) (A) (A) (A) (A) (A) (A)
                 (A) (A) (A) (A)
       Virtual   (A) (A) (A) (A) (A) (A) (A) (A) (A) (A) (A) (A)
                 (A) (A) (A) (A) (A) (A) (A) (A) (A) (A) (A) (A)
                 (A) (A) (A) (A) (A) (A) (A) (A) (A) (A) (A) (A)
                 (A) (A) (A) (A) (A) (A) (A) (A) (A) (A) (A) (A)
                 (A) (A) (A) (A) (A) (A) (A) (A) (A) (A) (A) (A)
                 (A) (A) (A) (A) (A) (A) (A) (A) (A) (A) (A) (A)
                 (A) (A) (A) (A) (A) (A) (A) (A) (A) (A) (A) (A)
                 (A) (A) (A) (A) (A) (A) (A) (A) (A) (A) (A) (A)
                 (A) (A) (A) (A) (A) (A) (A) (A) (A) (A) (A) (A)
                 (A) (A) (A) (A) (A) (A) (A) (A) (A) (A) (A) (A)
                 (A) (A) (A) (A) (A) (A) (A) (A) (A) (A) (A) (A)
                 (A) (A) (A) (A) (A) (A) (A) (A) (A) (A) (A) (A)
                 (A) (A) (A) (A) (A) (A) (A) (A) (A) (A) (A) (A)
                 (A) (A) (A) (A) (A) (A) (A) (A) (A) (A) (A) (A)
                 (A) (A) (A) (A) (A) (A) (A) (A) (A) (A) (A) (A)
                 (A) (A) (A) (A) (A) (A) (A) (A) (A) (A) (A) (A)
                 (A) (A) (A) (A) (A) (A) (A) (A) (A) (A) (A) (A)
                 (A) (A) (A) (A) (A) (A)
 The electronic state is 1-A.
 Alpha  occ. eigenvalues --  -18.78966 -18.78555 -18.78533 -18.78233 -18.77491
 Alpha  occ. eigenvalues --  -10.00033  -9.95709  -9.95639  -9.95614  -9.94775
 Alpha  occ. eigenvalues --   -0.99041  -0.96134  -0.94721  -0.93001  -0.92398
 Alpha  occ. eigenvalues --   -0.71832  -0.69363  -0.59380  -0.58844  -0.52792
 Alpha  occ. eigenvalues --   -0.49626  -0.48563  -0.47807  -0.45340  -0.43838
 Alpha  occ. eigenvalues --   -0.41618  -0.41047  -0.38630  -0.37646  -0.35789
 Alpha  occ. eigenvalues --   -0.34780  -0.32921  -0.32393  -0.30178  -0.28796
 Alpha  occ. eigenvalues --   -0.26616  -0.25935  -0.24880  -0.23961  -0.22866
 Alpha virt. eigenvalues --    0.00842   0.02131   0.02945   0.04428   0.05878
 Alpha virt. eigenvalues --    0.07255   0.08208   0.08709   0.10007   0.10332
 Alpha virt. eigenvalues --    0.11173   0.11762   0.13186   0.13736   0.14884
 Alpha virt. eigenvalues --    0.16699   0.16912   0.19382   0.19427   0.21479
 Alpha virt. eigenvalues --    0.24346   0.26115   0.26299   0.27109   0.27994
 Alpha virt. eigenvalues --    0.28830   0.29292   0.30941   0.31370   0.32295
 Alpha virt. eigenvalues --    0.33493   0.34945   0.35653   0.36312   0.37080
 Alpha virt. eigenvalues --    0.38008   0.38963   0.39433   0.39952   0.40563
 Alpha virt. eigenvalues --    0.42105   0.42942   0.43345   0.44176   0.46363
 Alpha virt. eigenvalues --    0.47233   0.47947   0.48016   0.50066   0.52606
 Alpha virt. eigenvalues --    0.53121   0.54566   0.55706   0.56655   0.59322
 Alpha virt. eigenvalues --    0.60293   0.61468   0.63740   0.65623   0.67724
 Alpha virt. eigenvalues --    0.70661   0.74644   0.76402   0.77957   0.79913
 Alpha virt. eigenvalues --    0.83502   0.88130   0.89512   0.92109   0.96973
 Alpha virt. eigenvalues --    1.11785   1.15310   1.19564   1.21525   1.23226
 Alpha virt. eigenvalues --    1.23471   1.24986   1.26976   1.27217   1.28952
 Alpha virt. eigenvalues --    1.30242   1.32117   1.33115   1.35445   1.36852
 Alpha virt. eigenvalues --    1.37618   1.39750   1.40528   1.40935   1.41716
 Alpha virt. eigenvalues --    1.44846   1.47285   1.47857   1.49580   1.51196
 Alpha virt. eigenvalues --    1.53177   1.56149   1.57755   1.60563   1.61821
 Alpha virt. eigenvalues --    1.63557   1.66412   1.67264   1.67831   1.69799
 Alpha virt. eigenvalues --    1.72236   1.74859   1.75254   1.79341   1.81569
 Alpha virt. eigenvalues --    1.84391   1.88046   1.88318   1.89546   1.91613
 Alpha virt. eigenvalues --    1.93757   1.94958   1.95669   1.97069   1.99280
 Alpha virt. eigenvalues --    2.00410   2.02049   2.02889   2.04376   2.07123
 Alpha virt. eigenvalues --    2.07791   2.13462   2.15561   2.19255   2.24021
 Alpha virt. eigenvalues --    2.24617   2.25501   2.27627   2.31024   2.33379
 Alpha virt. eigenvalues --    2.39043   2.41949   2.43676   2.44238   2.45202
 Alpha virt. eigenvalues --    2.49708   2.54088   2.56276   2.58069   2.60172
 Alpha virt. eigenvalues --    2.61279   2.62587   2.62945   2.63948   2.64400
 Alpha virt. eigenvalues --    2.65755   2.67319   2.68598   2.71922   2.72772
 Alpha virt. eigenvalues --    2.75696   2.79282   2.79984   2.82605   2.83490
 Alpha virt. eigenvalues --    2.85441   2.87338   2.87593   2.88349   2.89466
 Alpha virt. eigenvalues --    2.89661   2.91283   2.93006   2.95521   2.96612
 Alpha virt. eigenvalues --    2.98182   2.99448   3.02113   3.04841   3.05524
 Alpha virt. eigenvalues --    3.06376   3.09000   3.11342   3.14413   3.15039
 Alpha virt. eigenvalues --    3.18515   3.22931   3.25343   3.27510   3.30313
 Alpha virt. eigenvalues --    3.32542   3.38326   3.40540   3.40949   3.45209
 Alpha virt. eigenvalues --    3.78673   3.88354   3.91363   3.93180   3.95120
 Alpha virt. eigenvalues --    4.02361   4.16971   4.17679   4.18678   4.19415
 Alpha virt. eigenvalues --   21.55480  21.66256  21.76485  21.80424  21.88524
 Alpha virt. eigenvalues --   43.14161  43.21898  43.25963  43.30112  43.39672
          Condensed to atoms (all electrons):
               1          2          3          4          5          6
     1  O    7.990771   0.188713  -0.046673  -0.000577  -0.000786   0.000260
     2  C    0.188713   5.943957  -0.050220  -0.025993   0.097617  -0.001059
     3  C   -0.046673  -0.050220   5.417587   0.234428  -0.190979  -0.019637
     4  O   -0.000577  -0.025993   0.234428   8.069580   0.200804  -0.084200
     5  C   -0.000786   0.097617  -0.190979   0.200804   5.476693   0.286670
     6  O    0.000260  -0.001059  -0.019637  -0.084200   0.286670   7.968759
     7  C   -0.080714  -0.051049   0.067060   0.008257   0.007558  -0.068147
     8  O   -0.000157   0.024632  -0.001542   0.005508  -0.035744   0.003304
     9  C    0.041344  -0.114170  -0.000465  -0.048987  -0.072350  -0.032136
    10  O   -0.011290  -0.105799   0.014537  -0.000270   0.017686  -0.000287
    11  H    0.308628  -0.076849   0.014632  -0.000847  -0.000489  -0.000011
    12  H   -0.045546   0.387887  -0.043217   0.006440  -0.005434  -0.000127
    13  H    0.000497  -0.015974   0.363415  -0.033170   0.014862   0.000305
    14  H    0.005080  -0.045763   0.394254  -0.045413  -0.018270   0.029249
    15  H   -0.000428  -0.004988   0.012086  -0.053901   0.383347  -0.054118
    16  H    0.000037   0.001531  -0.002549   0.004285  -0.019501   0.295852
    17  H    0.040600  -0.024342  -0.011159   0.002383  -0.051506   0.005625
    18  H    0.000126  -0.001670   0.000116   0.000392  -0.003162   0.000879
    19  H    0.009773  -0.095455  -0.002429   0.001298  -0.011689   0.021745
    20  H   -0.000707   0.017642  -0.001356  -0.000031   0.003788  -0.000040
               7          8          9         10         11         12
     1  O   -0.080714  -0.000157   0.041344  -0.011290   0.308628  -0.045546
     2  C   -0.051049   0.024632  -0.114170  -0.105799  -0.076849   0.387887
     3  C    0.067060  -0.001542  -0.000465   0.014537   0.014632  -0.043217
     4  O    0.008257   0.005508  -0.048987  -0.000270  -0.000847   0.006440
     5  C    0.007558  -0.035744  -0.072350   0.017686  -0.000489  -0.005434
     6  O   -0.068147   0.003304  -0.032136  -0.000287  -0.000011  -0.000127
     7  C    5.924646   0.277450  -0.188252  -0.016961  -0.004537   0.014735
     8  O    0.277450   7.980455  -0.124716  -0.003379  -0.000234  -0.000029
     9  C   -0.188252  -0.124716   6.095405   0.215078   0.011395  -0.044785
    10  O   -0.016961  -0.003379   0.215078   8.011214   0.029795  -0.000269
    11  H   -0.004537  -0.000234   0.011395   0.029795   0.419579  -0.005338
    12  H    0.014735  -0.000029  -0.044785  -0.000269  -0.005338   0.558503
    13  H   -0.003679   0.000017   0.009182  -0.000274  -0.000563  -0.003285
    14  H   -0.006089   0.000048  -0.007969  -0.000220  -0.000760   0.007192
    15  H   -0.057434  -0.002202   0.018196  -0.000552  -0.000004   0.000077
    16  H    0.010694  -0.000781   0.000209   0.000020   0.000003  -0.000043
    17  H    0.339457  -0.051851  -0.001065  -0.003962   0.001546   0.001155
    18  H   -0.033276   0.309305   0.014344  -0.000330  -0.000003   0.000056
    19  H   -0.072329   0.001739   0.429372  -0.050666   0.002536  -0.003973
    20  H    0.003960   0.026694  -0.066835   0.313054  -0.000927  -0.000847
              13         14         15         16         17         18
     1  O    0.000497   0.005080  -0.000428   0.000037   0.040600   0.000126
     2  C   -0.015974  -0.045763  -0.004988   0.001531  -0.024342  -0.001670
     3  C    0.363415   0.394254   0.012086  -0.002549  -0.011159   0.000116
     4  O   -0.033170  -0.045413  -0.053901   0.004285   0.002383   0.000392
     5  C    0.014862  -0.018270   0.383347  -0.019501  -0.051506  -0.003162
     6  O    0.000305   0.029249  -0.054118   0.295852   0.005625   0.000879
     7  C   -0.003679  -0.006089  -0.057434   0.010694   0.339457  -0.033276
     8  O    0.000017   0.000048  -0.002202  -0.000781  -0.051851   0.309305
     9  C    0.009182  -0.007969   0.018196   0.000209  -0.001065   0.014344
    10  O   -0.000274  -0.000220  -0.000552   0.000020  -0.003962  -0.000330
    11  H   -0.000563  -0.000760  -0.000004   0.000003   0.001546  -0.000003
    12  H   -0.003285   0.007192   0.000077  -0.000043   0.001155   0.000056
    13  H    0.521750  -0.020917  -0.000107  -0.000151   0.000005  -0.000012
    14  H   -0.020917   0.548728   0.000150   0.000129   0.001270   0.000002
    15  H   -0.000107   0.000150   0.590621  -0.012210  -0.007993   0.003025
    16  H   -0.000151   0.000129  -0.012210   0.407772  -0.000341  -0.000036
    17  H    0.000005   0.001270  -0.007993  -0.000341   0.590804  -0.010209
    18  H   -0.000012   0.000002   0.003025  -0.000036  -0.010209   0.396638
    19  H   -0.000441   0.003753   0.000291  -0.000436   0.016164  -0.000841
    20  H    0.000036  -0.000019  -0.000187   0.000009  -0.004890  -0.001024
              19         20
     1  O    0.009773  -0.000707
     2  C   -0.095455   0.017642
     3  C   -0.002429  -0.001356
     4  O    0.001298  -0.000031
     5  C   -0.011689   0.003788
     6  O    0.021745  -0.000040
     7  C   -0.072329   0.003960
     8  O    0.001739   0.026694
     9  C    0.429372  -0.066835
    10  O   -0.050666   0.313054
    11  H    0.002536  -0.000927
    12  H   -0.003973  -0.000847
    13  H   -0.000441   0.000036
    14  H    0.003753  -0.000019
    15  H    0.000291  -0.000187
    16  H   -0.000436   0.000009
    17  H    0.016164  -0.004890
    18  H   -0.000841  -0.001024
    19  H    0.577618  -0.004774
    20  H   -0.004774   0.407116
 Mulliken charges:
               1
     1  O   -0.398953
     2  C   -0.048646
     3  C   -0.147891
     4  O   -0.239988
     5  C   -0.079116
     6  O   -0.352887
     7  C   -0.071351
     8  O   -0.408515
     9  C   -0.132795
    10  O   -0.407126
    11  H    0.302447
    12  H    0.176849
    13  H    0.168505
    14  H    0.155563
    15  H    0.186330
    16  H    0.315505
    17  H    0.168305
    18  H    0.325681
    19  H    0.178743
    20  H    0.309339
 Sum of Mulliken charges =  -0.00000
 Mulliken charges with hydrogens summed into heavy atoms:
               1
     1  O   -0.096505
     2  C    0.128202
     3  C    0.176177
     4  O   -0.239988
     5  C    0.107215
     6  O   -0.037382
     7  C    0.096954
     8  O   -0.082834
     9  C    0.045948
    10  O   -0.097787
 Electronic spatial extent (au):  <R**2>=           1323.7601
 Charge=              0.0000 electrons
 Dipole moment (field-independent basis, Debye):
    X=             -2.6129    Y=              1.0598    Z=             -0.7431  Tot=              2.9160
 Quadrupole moment (field-independent basis, Debye-Ang):
   XX=            -57.1521   YY=            -57.7644   ZZ=            -58.4792
   XY=              2.9432   XZ=              4.3207   YZ=            -11.9172
 Traceless Quadrupole moment (field-independent basis, Debye-Ang):
   XX=              0.6465   YY=              0.0342   ZZ=             -0.6806
   XY=              2.9432   XZ=              4.3207   YZ=            -11.9172
 Octapole moment (field-independent basis, Debye-Ang**2):
  XXX=            -36.7264  YYY=             18.0601  ZZZ=             -4.5206  XYY=             -3.1546
  XXY=             -4.5543  XXZ=             -6.5963  XZZ=             -5.8816  YZZ=             10.1768
  YYZ=             -3.7621  XYZ=              3.7247
 Hexadecapole moment (field-independent basis, Debye-Ang**3):
 XXXX=           -650.7767 YYYY=           -593.4782 ZZZZ=           -202.6537 XXXY=             46.8910
 XXXZ=            -14.8956 YYYX=             -0.0863 YYYZ=            -40.0276 ZZZX=              3.3440
 ZZZY=            -17.2178 XXYY=           -234.2003 XXZZ=           -150.5362 YYZZ=           -135.5453
 XXYZ=            -39.0092 YYXZ=             10.1067 ZZXY=             -5.2986
 N-N= 6.249332297786D+02 E-N=-2.595905015281D+03  KE= 5.704460760375D+02
 Unable to Open any file for archive entry.
 1\1\GINC-TCN1717\SP\RBP86\TZVP\C5H10O5\ELENAA\22-Feb-2021\0\\# BP86/TZ
 VP SCRF=COSMORS geom=CHECKPOINT guess=CHECKPOINT\\COSMO-file for #SRBF
 ZHDQGSBBOR-SQOUGZDYSA-N\\0,1\O,0,-2.3660153747,0.6074113719,2.71119593
 31\C,0,-3.2995959983,-0.1019959508,1.8785576342\C,0,-3.0525014425,-1.6
 007026114,2.0128700544\O,0,-1.7926092878,-2.0211245918,1.4359076111\C,
 0,-1.6775188105,-1.6915181817,0.0481465816\O,0,-2.6714467348,-2.319192
 4652,-0.7481379789\C,0,-1.8015383495,-0.1646642973,-0.1287052186\O,0,-
 1.713914416,0.2699468853,-1.4963198363\C,0,-3.1456567062,0.3205239881,
 0.4104806493\O,0,-3.2310544986,1.7573220037,0.36282462\H,0,-2.37086227
 25,1.5279978601,2.3786007457\H,0,-4.3376384499,0.109255329,2.203068779
 1\H,0,-2.998824564,-1.8797660991,3.0731288151\H,0,-3.8866995722,-2.147
 4831336,1.5411631321\H,0,-0.6667010694,-2.0340638748,-0.2313821145\H,0
 ,-2.5014021181,-3.2790430369,-0.7253663731\H,0,-1.0017928565,0.2922956
 339,0.478674154\H,0,-0.7728774725,0.3139735819,-1.7420448971\H,0,-3.95
 93253548,-0.1343932612,-0.1828288468\H,0,-2.8231126073,2.023905808,-0.
 4845353534\\Version=ES64L-G16RevC.01\State=1-A\HF=-572.8947813\RMSD=3.
 230e-09\Dipole=0.5988411,-0.4457478,-0.8711039\Quadrupole=2.7450827,3.
 3846111,-6.1296938,3.134187,-7.4470752,-0.5377461\PG=C01 [X(C5H10O5)]\
 \@
 The archive entry for this job was punched.


 A leading authority is anyone who has guessed right more than once.
 -- Frank A. Clark
 Job cpu time:       0 days  0 hours  6 minutes 14.1 seconds.
 Elapsed time:       0 days  0 hours  0 minutes 12.2 seconds.
 File lengths (MBytes):  RWF=     51 Int=      0 D2E=      0 Chk=      9 Scr=      1
 Normal termination of Gaussian 16 at Mon Feb 22 21:22:09 2021.
