 Entering Gaussian System, Link 0=g16
 Input=SYZCZDCAEVUSPM-UHFFFAOYSA-M.gjf
 Output=SYZCZDCAEVUSPM-UHFFFAOYSA-M.log
 Initial command:
 /sw/arch/RedHatEnterpriseServer7/EB_production/2020/software/Gaussian/g16.c01/l1.exe "/scratch-local/elenaa.10684706/Gau-28634.inp" -scrdir="/scratch-local/elenaa.10684706/"
 Entering Link 1 = /sw/arch/RedHatEnterpriseServer7/EB_production/2020/software/Gaussian/g16.c01/l1.exe PID=     28636.
  
 Copyright (c) 1988-2019, Gaussian, Inc.  All Rights Reserved.
  
 This is part of the Gaussian(R) 16 program.  It is based on
 the Gaussian(R) 09 system (copyright 2009, Gaussian, Inc.),
 the Gaussian(R) 03 system (copyright 2003, Gaussian, Inc.),
 the Gaussian(R) 98 system (copyright 1998, Gaussian, Inc.),
 the Gaussian(R) 94 system (copyright 1995, Gaussian, Inc.),
 the Gaussian 92(TM) system (copyright 1992, Gaussian, Inc.),
 the Gaussian 90(TM) system (copyright 1990, Gaussian, Inc.),
 the Gaussian 88(TM) system (copyright 1988, Gaussian, Inc.),
 the Gaussian 86(TM) system (copyright 1986, Carnegie Mellon
 University), and the Gaussian 82(TM) system (copyright 1983,
 Carnegie Mellon University). Gaussian is a federally registered
 trademark of Gaussian, Inc.
  
 This software contains proprietary and confidential information,
 including trade secrets, belonging to Gaussian, Inc.
  
 This software is provided under written license and may be
 used, copied, transmitted, or stored only in accord with that
 written license.
  
 The following legend is applicable only to US Government
 contracts under FAR:
  
                    RESTRICTED RIGHTS LEGEND
  
 Use, reproduction and disclosure by the US Government is
 subject to restrictions as set forth in subparagraphs (a)
 and (c) of the Commercial Computer Software - Restricted
 Rights clause in FAR 52.227-19.
  
 Gaussian, Inc.
 340 Quinnipiac St., Bldg. 40, Wallingford CT 06492
  
  
 ---------------------------------------------------------------
 Warning -- This program may not be used in any manner that
 competes with the business of Gaussian, Inc. or will provide
 assistance to any competitor of Gaussian, Inc.  The licensee
 of this program is prohibited from giving any competitor of
 Gaussian, Inc. access to this program.  By using this program,
 the user acknowledges that Gaussian, Inc. is engaged in the
 business of creating and licensing software in the field of
 computational chemistry and represents and warrants to the
 licensee that it is not a competitor of Gaussian, Inc. and that
 it will not use this program in any manner prohibited above.
 ---------------------------------------------------------------
  

 Cite this work as:
 Gaussian 16, Revision C.01,
 M. J. Frisch, G. W. Trucks, H. B. Schlegel, G. E. Scuseria, 
 M. A. Robb, J. R. Cheeseman, G. Scalmani, V. Barone, 
 G. A. Petersson, H. Nakatsuji, X. Li, M. Caricato, A. V. Marenich, 
 J. Bloino, B. G. Janesko, R. Gomperts, B. Mennucci, H. P. Hratchian, 
 J. V. Ortiz, A. F. Izmaylov, J. L. Sonnenberg, D. Williams-Young, 
 F. Ding, F. Lipparini, F. Egidi, J. Goings, B. Peng, A. Petrone, 
 T. Henderson, D. Ranasinghe, V. G. Zakrzewski, J. Gao, N. Rega, 
 G. Zheng, W. Liang, M. Hada, M. Ehara, K. Toyota, R. Fukuda, 
 J. Hasegawa, M. Ishida, T. Nakajima, Y. Honda, O. Kitao, H. Nakai, 
 T. Vreven, K. Throssell, J. A. Montgomery, Jr., J. E. Peralta, 
 F. Ogliaro, M. J. Bearpark, J. J. Heyd, E. N. Brothers, K. N. Kudin, 
 V. N. Staroverov, T. A. Keith, R. Kobayashi, J. Normand, 
 K. Raghavachari, A. P. Rendell, J. C. Burant, S. S. Iyengar, 
 J. Tomasi, M. Cossi, J. M. Millam, M. Klene, C. Adamo, R. Cammi, 
 J. W. Ochterski, R. L. Martin, K. Morokuma, O. Farkas, 
 J. B. Foresman, and D. J. Fox, Gaussian, Inc., Wallingford CT, 2019.
 
 ******************************************
 Gaussian 16:  ES64L-G16RevC.01  3-Jul-2019
                21-Aug-2021 
 ******************************************
 %chk=SYZCZDCAEVUSPM-UHFFFAOYSA-M.chk
 %NProcShared=24
 Will use up to   24 processors via shared memory.
 -------------------------------------------------------------
 #P BP86/TZVP EmpiricalDispersion=GD3 SCRF=(Solvent=Water) Opt
 -------------------------------------------------------------
 1/18=20,19=15,26=3,38=1/1,3;
 2/9=110,12=2,17=6,18=5,40=1/2;
 3/5=19,7=101,11=2,25=1,30=1,70=2201,71=1,72=1,74=404,124=31/1,2,3;
 4//1;
 5/5=2,38=5,53=1/2;
 6/7=2,8=2,9=2,10=2,28=1/1;
 7//1,2,3,16;
 1/18=20,19=15,26=3/3(2);
 2/9=110/2;
 99//99;
 2/9=110/2;
 3/5=19,7=101,11=2,25=1,30=1,70=2205,71=1,72=1,74=404,124=31/1,2,3;
 4/5=5,16=3,69=1/1;
 5/5=2,38=5,53=1/2;
 7//1,2,3,16;
 1/18=20,19=15,26=3/3(-5);
 2/9=110/2;
 6/7=2,8=2,9=2,10=2,19=2,28=1/1;
 99/9=1/99;
 Leave Link    1 at Sat Aug 21 09:33:13 2021, MaxMem=           0 cpu:               3.0 elap:               0.4
 (Enter /sw/arch/RedHatEnterpriseServer7/EB_production/2020/software/Gaussian/g16.c01/l101.exe)
 -------------------------------------
 Particle #SYZCZDCAEVUSPM-UHFFFAOYSA-M
 -------------------------------------
 Symbolic Z-matrix:
 Charge =  0 Multiplicity = 1
 C                    -0.907    -2.52777  -5.43724 
 C                    -0.69837  -1.16308  -4.78801 
 C                    -1.97931  -0.67856  -4.08997 
 C                    -1.88977   0.78926  -3.62993 
 C                    -0.92481   1.02798  -2.45335 
 C                    -1.54075   0.60821  -1.09003 
 N                    -0.60641   0.63048   0.09588 
 C                     0.01672   2.00102   0.17918 
 C                     0.7757    2.33737   1.48393 
 C                     1.36594   3.75933   1.47264 
 C                     2.50953   3.94935   0.45245 
 C                     2.06824   4.78101  -0.76139 
 C                     3.18757   4.88925  -1.79249 
 C                    -1.42841   0.30383   1.32571 
 C                    -0.71227  -0.41019   2.50817 
 C                    -1.60927  -0.43294   3.756 
 C                    -1.02756  -1.28166   4.90156 
 C                     0.33414  -0.80324   5.43729 
 C                     0.29697   0.62465   5.98085 
 C                     0.49842  -0.37706  -0.11758 
 C                     0.02651  -1.80514  -0.49552 
 C                     1.15503  -2.8319   -0.32732 
 C                     0.67015  -4.28425  -0.47167 
 C                     0.13411  -4.62761  -1.8772 
 C                    -1.39415  -4.62601  -1.93403 
 Br                   -3.29624   3.19348   0.69357 
 H                     0.04087  -2.86563  -5.90662 
 H                    -1.21112  -3.27413  -4.67508 
 H                    -1.69006  -2.46651  -6.22269 
 H                     0.1288   -1.25233  -4.05326 
 H                    -0.39649  -0.43803  -5.57472 
 H                    -2.82533  -0.75144  -4.80821 
 H                    -2.21749  -1.3465   -3.23644 
 H                    -1.56729   1.41463  -4.49119 
 H                    -2.9061    1.14114  -3.34741 
 H                    -0.71393   2.1183   -2.42856 
 H                     0.03319   0.51859  -2.65565 
 H                    -2.40024   1.27733  -0.91515 
 H                    -2.0152   -0.38854  -1.19486 
 H                     0.74084   2.12968  -0.65234 
 H                    -0.73986   2.78985   0.01943 
 H                     0.07689   2.30281   2.34429 
 H                     1.5989    1.61429   1.65896 
 H                     1.77296   3.95664   2.48889 
 H                     0.55308   4.50247   1.31442 
 H                     3.34789   4.48332   0.95215 
 H                     2.90781   2.96628   0.11725 
 H                     1.78873   5.80383  -0.42685 
 H                     1.18041   4.32302  -1.2454 
 H                     2.84532   5.50706  -2.64932 
 H                     3.46252   3.88109  -2.16951 
 H                     4.08217   5.36998  -1.34236 
 H                    -1.87577   1.22435   1.73592 
 H                    -2.29439  -0.34648   1.06339 
 H                    -0.47311  -1.45882   2.23915 
 H                     0.23166   0.09663   2.76984 
 H                    -2.59554  -0.86743   3.48167 
 H                    -1.79715   0.60388   4.10783 
 H                    -1.75848  -1.29017   5.73939 
 H                    -0.92155  -2.33237   4.55381 
 H                     1.11438  -0.88546   4.65172 
 H                     0.63635  -1.48203   6.26398 
 H                     0.17209   1.35489   5.15419 
 H                     1.25535   0.84886   6.49477 
 H                    -0.53234   0.74182   6.71035 
 H                     1.20048  -0.04571  -0.91217 
 H                     1.15457  -0.43519   0.77311 
 H                    -0.84521  -2.11203   0.11695 
 H                    -0.27997  -1.80904  -1.56157 
 H                     1.59784  -2.72715   0.68738 
 H                     1.95871  -2.62858  -1.06872 
 H                     1.54117  -4.94362  -0.26363 
 H                    -0.08542  -4.50805   0.31358 
 H                     0.5381   -3.92974  -2.6427 
 H                     0.48028  -5.64789  -2.15194 
 H                    -1.72825  -4.93904  -2.94504 
 H                    -1.80825  -5.34417  -1.19476 
 H                    -1.80068  -3.61578  -1.72653 
 
 Add virtual bond connecting atoms H38        and Br26       Dist= 5.02D+00.
 Add virtual bond connecting atoms H41        and Br26       Dist= 5.05D+00.
 Add virtual bond connecting atoms H53        and Br26       Dist= 4.99D+00.
 ITRead=  0  0  0  0  0  0  0  0  0  0  0  0  0  0  0  0  0  0  0  0
 ITRead=  0  0  0  0  0  0  0  0  0  0  0  0  0  0  0  0  0  0  0  0
 ITRead=  0  0  0  0  0  0  0  0  0  0  0  0  0  0  0  0  0  0  0  0
 ITRead=  0  0  0  0  0  0  0  0  0  0  0  0  0  0  0  0  0  0
 MicOpt= -1 -1 -1 -1 -1 -1 -1 -1 -1 -1 -1 -1 -1 -1 -1 -1 -1 -1 -1 -1
 MicOpt= -1 -1 -1 -1 -1 -1 -1 -1 -1 -1 -1 -1 -1 -1 -1 -1 -1 -1 -1 -1
 MicOpt= -1 -1 -1 -1 -1 -1 -1 -1 -1 -1 -1 -1 -1 -1 -1 -1 -1 -1 -1 -1
 MicOpt= -1 -1 -1 -1 -1 -1 -1 -1 -1 -1 -1 -1 -1 -1 -1 -1 -1 -1
 NAtoms=     78 NQM=       78 NQMF=       0 NMMI=      0 NMMIF=      0
                NMic=       0 NMicF=      0.
                    Isotopes and Nuclear Properties:
 (Nuclear quadrupole moments (NQMom) in fm**2, nuclear magnetic moments (NMagM)
  in nuclear magnetons)

  Atom         1           2           3           4           5           6           7           8           9          10
 IAtWgt=          12          12          12          12          12          12          14          12          12          12
 AtmWgt=  12.0000000  12.0000000  12.0000000  12.0000000  12.0000000  12.0000000  14.0030740  12.0000000  12.0000000  12.0000000
 NucSpn=           0           0           0           0           0           0           2           0           0           0
 AtZEff=  -0.0000000  -0.0000000  -0.0000000  -0.0000000  -0.0000000  -0.0000000  -0.0000000  -0.0000000  -0.0000000  -0.0000000
 NQMom=    0.0000000   0.0000000   0.0000000   0.0000000   0.0000000   0.0000000   2.0440000   0.0000000   0.0000000   0.0000000
 NMagM=    0.0000000   0.0000000   0.0000000   0.0000000   0.0000000   0.0000000   0.4037610   0.0000000   0.0000000   0.0000000
 AtZNuc=   6.0000000   6.0000000   6.0000000   6.0000000   6.0000000   6.0000000   7.0000000   6.0000000   6.0000000   6.0000000

  Atom        11          12          13          14          15          16          17          18          19          20
 IAtWgt=          12          12          12          12          12          12          12          12          12          12
 AtmWgt=  12.0000000  12.0000000  12.0000000  12.0000000  12.0000000  12.0000000  12.0000000  12.0000000  12.0000000  12.0000000
 NucSpn=           0           0           0           0           0           0           0           0           0           0
 AtZEff=  -0.0000000  -0.0000000  -0.0000000  -0.0000000  -0.0000000  -0.0000000  -0.0000000  -0.0000000  -0.0000000  -0.0000000
 NQMom=    0.0000000   0.0000000   0.0000000   0.0000000   0.0000000   0.0000000   0.0000000   0.0000000   0.0000000   0.0000000
 NMagM=    0.0000000   0.0000000   0.0000000   0.0000000   0.0000000   0.0000000   0.0000000   0.0000000   0.0000000   0.0000000
 AtZNuc=   6.0000000   6.0000000   6.0000000   6.0000000   6.0000000   6.0000000   6.0000000   6.0000000   6.0000000   6.0000000

  Atom        21          22          23          24          25          26          27          28          29          30
 IAtWgt=          12          12          12          12          12          79           1           1           1           1
 AtmWgt=  12.0000000  12.0000000  12.0000000  12.0000000  12.0000000  78.9183361   1.0078250   1.0078250   1.0078250   1.0078250
 NucSpn=           0           0           0           0           0           3           1           1           1           1
 AtZEff=  -0.0000000  -0.0000000  -0.0000000  -0.0000000  -0.0000000  -0.0000000  -0.0000000  -0.0000000  -0.0000000  -0.0000000
 NQMom=    0.0000000   0.0000000   0.0000000   0.0000000   0.0000000  31.3000000   0.0000000   0.0000000   0.0000000   0.0000000
 NMagM=    0.0000000   0.0000000   0.0000000   0.0000000   0.0000000   2.1063990   2.7928460   2.7928460   2.7928460   2.7928460
 AtZNuc=   6.0000000   6.0000000   6.0000000   6.0000000   6.0000000  35.0000000   1.0000000   1.0000000   1.0000000   1.0000000

  Atom        31          32          33          34          35          36          37          38          39          40
 IAtWgt=           1           1           1           1           1           1           1           1           1           1
 AtmWgt=   1.0078250   1.0078250   1.0078250   1.0078250   1.0078250   1.0078250   1.0078250   1.0078250   1.0078250   1.0078250
 NucSpn=           1           1           1           1           1           1           1           1           1           1
 AtZEff=  -0.0000000  -0.0000000  -0.0000000  -0.0000000  -0.0000000  -0.0000000  -0.0000000  -0.0000000  -0.0000000  -0.0000000
 NQMom=    0.0000000   0.0000000   0.0000000   0.0000000   0.0000000   0.0000000   0.0000000   0.0000000   0.0000000   0.0000000
 NMagM=    2.7928460   2.7928460   2.7928460   2.7928460   2.7928460   2.7928460   2.7928460   2.7928460   2.7928460   2.7928460
 AtZNuc=   1.0000000   1.0000000   1.0000000   1.0000000   1.0000000   1.0000000   1.0000000   1.0000000   1.0000000   1.0000000

  Atom        41          42          43          44          45          46          47          48          49          50
 IAtWgt=           1           1           1           1           1           1           1           1           1           1
 AtmWgt=   1.0078250   1.0078250   1.0078250   1.0078250   1.0078250   1.0078250   1.0078250   1.0078250   1.0078250   1.0078250
 NucSpn=           1           1           1           1           1           1           1           1           1           1
 AtZEff=  -0.0000000  -0.0000000  -0.0000000  -0.0000000  -0.0000000  -0.0000000  -0.0000000  -0.0000000  -0.0000000  -0.0000000
 NQMom=    0.0000000   0.0000000   0.0000000   0.0000000   0.0000000   0.0000000   0.0000000   0.0000000   0.0000000   0.0000000
 NMagM=    2.7928460   2.7928460   2.7928460   2.7928460   2.7928460   2.7928460   2.7928460   2.7928460   2.7928460   2.7928460
 AtZNuc=   1.0000000   1.0000000   1.0000000   1.0000000   1.0000000   1.0000000   1.0000000   1.0000000   1.0000000   1.0000000

  Atom        51          52          53          54          55          56          57          58          59          60
 IAtWgt=           1           1           1           1           1           1           1           1           1           1
 AtmWgt=   1.0078250   1.0078250   1.0078250   1.0078250   1.0078250   1.0078250   1.0078250   1.0078250   1.0078250   1.0078250
 NucSpn=           1           1           1           1           1           1           1           1           1           1
 AtZEff=  -0.0000000  -0.0000000  -0.0000000  -0.0000000  -0.0000000  -0.0000000  -0.0000000  -0.0000000  -0.0000000  -0.0000000
 NQMom=    0.0000000   0.0000000   0.0000000   0.0000000   0.0000000   0.0000000   0.0000000   0.0000000   0.0000000   0.0000000
 NMagM=    2.7928460   2.7928460   2.7928460   2.7928460   2.7928460   2.7928460   2.7928460   2.7928460   2.7928460   2.7928460
 AtZNuc=   1.0000000   1.0000000   1.0000000   1.0000000   1.0000000   1.0000000   1.0000000   1.0000000   1.0000000   1.0000000

  Atom        61          62          63          64          65          66          67          68          69          70
 IAtWgt=           1           1           1           1           1           1           1           1           1           1
 AtmWgt=   1.0078250   1.0078250   1.0078250   1.0078250   1.0078250   1.0078250   1.0078250   1.0078250   1.0078250   1.0078250
 NucSpn=           1           1           1           1           1           1           1           1           1           1
 AtZEff=  -0.0000000  -0.0000000  -0.0000000  -0.0000000  -0.0000000  -0.0000000  -0.0000000  -0.0000000  -0.0000000  -0.0000000
 NQMom=    0.0000000   0.0000000   0.0000000   0.0000000   0.0000000   0.0000000   0.0000000   0.0000000   0.0000000   0.0000000
 NMagM=    2.7928460   2.7928460   2.7928460   2.7928460   2.7928460   2.7928460   2.7928460   2.7928460   2.7928460   2.7928460
 AtZNuc=   1.0000000   1.0000000   1.0000000   1.0000000   1.0000000   1.0000000   1.0000000   1.0000000   1.0000000   1.0000000

  Atom        71          72          73          74          75          76          77          78
 IAtWgt=           1           1           1           1           1           1           1           1
 AtmWgt=   1.0078250   1.0078250   1.0078250   1.0078250   1.0078250   1.0078250   1.0078250   1.0078250
 NucSpn=           1           1           1           1           1           1           1           1
 AtZEff=  -0.0000000  -0.0000000  -0.0000000  -0.0000000  -0.0000000  -0.0000000  -0.0000000  -0.0000000
 NQMom=    0.0000000   0.0000000   0.0000000   0.0000000   0.0000000   0.0000000   0.0000000   0.0000000
 NMagM=    2.7928460   2.7928460   2.7928460   2.7928460   2.7928460   2.7928460   2.7928460   2.7928460
 AtZNuc=   1.0000000   1.0000000   1.0000000   1.0000000   1.0000000   1.0000000   1.0000000   1.0000000
 Leave Link  101 at Sat Aug 21 09:33:14 2021, MaxMem=   104857600 cpu:               3.0 elap:               0.2
 (Enter /sw/arch/RedHatEnterpriseServer7/EB_production/2020/software/Gaussian/g16.c01/l103.exe)

 GradGradGradGradGradGradGradGradGradGradGradGradGradGradGradGradGradGrad
 Berny optimization.
 Initialization pass.
                           ----------------------------
                           !    Initial Parameters    !
                           ! (Angstroms and Degrees)  !
 --------------------------                            --------------------------
 ! Name  Definition              Value          Derivative Info.                !
 --------------------------------------------------------------------------------
 ! R1    R(1,2)                  1.5256         estimate D2E/DX2                !
 ! R2    R(1,27)                 1.1104         estimate D2E/DX2                !
 ! R3    R(1,28)                 1.1093         estimate D2E/DX2                !
 ! R4    R(1,29)                 1.1108         estimate D2E/DX2                !
 ! R5    R(2,3)                  1.5372         estimate D2E/DX2                !
 ! R6    R(2,30)                 1.11           estimate D2E/DX2                !
 ! R7    R(2,31)                 1.1116         estimate D2E/DX2                !
 ! R8    R(3,4)                  1.5408         estimate D2E/DX2                !
 ! R9    R(3,32)                 1.1122         estimate D2E/DX2                !
 ! R10   R(3,33)                 1.1097         estimate D2E/DX2                !
 ! R11   R(4,5)                  1.5403         estimate D2E/DX2                !
 ! R12   R(4,34)                 1.1121         estimate D2E/DX2                !
 ! R13   R(4,35)                 1.112          estimate D2E/DX2                !
 ! R14   R(5,6)                  1.5538         estimate D2E/DX2                !
 ! R15   R(5,36)                 1.1108         estimate D2E/DX2                !
 ! R16   R(5,37)                 1.1037         estimate D2E/DX2                !
 ! R17   R(6,7)                  1.5099         estimate D2E/DX2                !
 ! R18   R(6,38)                 1.1032         estimate D2E/DX2                !
 ! R19   R(6,39)                 1.1089         estimate D2E/DX2                !
 ! R20   R(7,8)                  1.5078         estimate D2E/DX2                !
 ! R21   R(7,14)                 1.5149         estimate D2E/DX2                !
 ! R22   R(7,20)                 1.5104         estimate D2E/DX2                !
 ! R23   R(8,9)                  1.5465         estimate D2E/DX2                !
 ! R24   R(8,40)                 1.1101         estimate D2E/DX2                !
 ! R25   R(8,41)                 1.1046         estimate D2E/DX2                !
 ! R26   R(9,10)                 1.5396         estimate D2E/DX2                !
 ! R27   R(9,42)                 1.1089         estimate D2E/DX2                !
 ! R28   R(9,43)                 1.1096         estimate D2E/DX2                !
 ! R29   R(10,11)                1.5442         estimate D2E/DX2                !
 ! R30   R(10,44)                1.1124         estimate D2E/DX2                !
 ! R31   R(10,45)                1.1127         estimate D2E/DX2                !
 ! R32   R(11,12)                1.5362         estimate D2E/DX2                !
 ! R33   R(11,46)                1.1125         estimate D2E/DX2                !
 ! R34   R(11,47)                1.1124         estimate D2E/DX2                !
 ! R35   R(12,13)                1.5257         estimate D2E/DX2                !
 ! R36   R(12,48)                1.1119         estimate D2E/DX2                !
 ! R37   R(12,49)                1.1101         estimate D2E/DX2                !
 ! R38   R(13,50)                1.1104         estimate D2E/DX2                !
 ! R39   R(13,51)                1.1109         estimate D2E/DX2                !
 ! R40   R(13,52)                1.1109         estimate D2E/DX2                !
 ! R41   R(14,15)                1.5559         estimate D2E/DX2                !
 ! R42   R(14,53)                1.1026         estimate D2E/DX2                !
 ! R43   R(14,54)                1.1143         estimate D2E/DX2                !
 ! R44   R(15,16)                1.5369         estimate D2E/DX2                !
 ! R45   R(15,55)                1.1087         estimate D2E/DX2                !
 ! R46   R(15,56)                1.1029         estimate D2E/DX2                !
 ! R47   R(16,17)                1.5398         estimate D2E/DX2                !
 ! R48   R(16,57)                1.1121         estimate D2E/DX2                !
 ! R49   R(16,58)                1.1109         estimate D2E/DX2                !
 ! R50   R(17,18)                1.5395         estimate D2E/DX2                !
 ! R51   R(17,59)                1.1119         estimate D2E/DX2                !
 ! R52   R(17,60)                1.1118         estimate D2E/DX2                !
 ! R53   R(18,19)                1.5283         estimate D2E/DX2                !
 ! R54   R(18,61)                1.1102         estimate D2E/DX2                !
 ! R55   R(18,62)                1.1115         estimate D2E/DX2                !
 ! R56   R(19,63)                1.11           estimate D2E/DX2                !
 ! R57   R(19,64)                1.1103         estimate D2E/DX2                !
 ! R58   R(19,65)                1.1107         estimate D2E/DX2                !
 ! R59   R(20,21)                1.5508         estimate D2E/DX2                !
 ! R60   R(20,66)                1.1109         estimate D2E/DX2                !
 ! R61   R(20,67)                1.1078         estimate D2E/DX2                !
 ! R62   R(21,22)                1.5349         estimate D2E/DX2                !
 ! R63   R(21,68)                1.1087         estimate D2E/DX2                !
 ! R64   R(21,69)                1.1092         estimate D2E/DX2                !
 ! R65   R(22,23)                1.5379         estimate D2E/DX2                !
 ! R66   R(22,70)                1.1121         estimate D2E/DX2                !
 ! R67   R(22,71)                1.1122         estimate D2E/DX2                !
 ! R68   R(23,24)                1.543          estimate D2E/DX2                !
 ! R69   R(23,72)                1.1121         estimate D2E/DX2                !
 ! R70   R(23,73)                1.1125         estimate D2E/DX2                !
 ! R71   R(24,25)                1.5293         estimate D2E/DX2                !
 ! R72   R(24,74)                1.1119         estimate D2E/DX2                !
 ! R73   R(24,75)                1.1119         estimate D2E/DX2                !
 ! R74   R(25,76)                1.1098         estimate D2E/DX2                !
 ! R75   R(25,77)                1.1107         estimate D2E/DX2                !
 ! R76   R(25,78)                1.1086         estimate D2E/DX2                !
 ! R77   R(26,38)                2.6575         estimate D2E/DX2                !
 ! R78   R(26,41)                2.6744         estimate D2E/DX2                !
 ! R79   R(26,53)                2.6423         estimate D2E/DX2                !
 ! A1    A(2,1,27)             109.593          estimate D2E/DX2                !
 ! A2    A(2,1,28)             110.3024         estimate D2E/DX2                !
 ! A3    A(2,1,29)             110.3646         estimate D2E/DX2                !
 ! A4    A(27,1,28)            108.6484         estimate D2E/DX2                !
 ! A5    A(27,1,29)            108.6425         estimate D2E/DX2                !
 ! A6    A(28,1,29)            109.2498         estimate D2E/DX2                !
 ! A7    A(1,2,3)              111.177          estimate D2E/DX2                !
 ! A8    A(1,2,30)             108.1613         estimate D2E/DX2                !
 ! A9    A(1,2,31)             108.6271         estimate D2E/DX2                !
 ! A10   A(3,2,30)             110.2277         estimate D2E/DX2                !
 ! A11   A(3,2,31)             110.0042         estimate D2E/DX2                !
 ! A12   A(30,2,31)            108.5748         estimate D2E/DX2                !
 ! A13   A(2,3,4)              112.7944         estimate D2E/DX2                !
 ! A14   A(2,3,32)             108.6618         estimate D2E/DX2                !
 ! A15   A(2,3,33)             109.7807         estimate D2E/DX2                !
 ! A16   A(4,3,32)             107.4239         estimate D2E/DX2                !
 ! A17   A(4,3,33)             110.869          estimate D2E/DX2                !
 ! A18   A(32,3,33)            107.0984         estimate D2E/DX2                !
 ! A19   A(3,4,5)              114.3374         estimate D2E/DX2                !
 ! A20   A(3,4,34)             108.7423         estimate D2E/DX2                !
 ! A21   A(3,4,35)             108.9166         estimate D2E/DX2                !
 ! A22   A(5,4,34)             108.8293         estimate D2E/DX2                !
 ! A23   A(5,4,35)             109.236          estimate D2E/DX2                !
 ! A24   A(34,4,35)            106.4887         estimate D2E/DX2                !
 ! A25   A(4,5,6)              112.3351         estimate D2E/DX2                !
 ! A26   A(4,5,36)             106.7445         estimate D2E/DX2                !
 ! A27   A(4,5,37)             109.4047         estimate D2E/DX2                !
 ! A28   A(6,5,36)             108.7144         estimate D2E/DX2                !
 ! A29   A(6,5,37)             112.3476         estimate D2E/DX2                !
 ! A30   A(36,5,37)            106.997          estimate D2E/DX2                !
 ! A31   A(5,6,7)              116.0944         estimate D2E/DX2                !
 ! A32   A(5,6,38)             106.5034         estimate D2E/DX2                !
 ! A33   A(5,6,39)             109.2386         estimate D2E/DX2                !
 ! A34   A(7,6,38)             110.4051         estimate D2E/DX2                !
 ! A35   A(7,6,39)             110.6267         estimate D2E/DX2                !
 ! A36   A(38,6,39)            103.1107         estimate D2E/DX2                !
 ! A37   A(6,7,8)              108.2109         estimate D2E/DX2                !
 ! A38   A(6,7,14)             107.3776         estimate D2E/DX2                !
 ! A39   A(6,7,20)             109.3778         estimate D2E/DX2                !
 ! A40   A(8,7,14)             112.0483         estimate D2E/DX2                !
 ! A41   A(8,7,20)             108.1701         estimate D2E/DX2                !
 ! A42   A(14,7,20)            111.5805         estimate D2E/DX2                !
 ! A43   A(7,8,9)              116.5587         estimate D2E/DX2                !
 ! A44   A(7,8,40)             109.4836         estimate D2E/DX2                !
 ! A45   A(7,8,41)             110.9808         estimate D2E/DX2                !
 ! A46   A(9,8,40)             106.6557         estimate D2E/DX2                !
 ! A47   A(9,8,41)             107.6287         estimate D2E/DX2                !
 ! A48   A(40,8,41)            104.814          estimate D2E/DX2                !
 ! A49   A(8,9,10)             112.509          estimate D2E/DX2                !
 ! A50   A(8,9,42)             109.7867         estimate D2E/DX2                !
 ! A51   A(8,9,43)             110.8222         estimate D2E/DX2                !
 ! A52   A(10,9,42)            106.0249         estimate D2E/DX2                !
 ! A53   A(10,9,43)            108.5787         estimate D2E/DX2                !
 ! A54   A(42,9,43)            108.9556         estimate D2E/DX2                !
 ! A55   A(9,10,11)            113.7278         estimate D2E/DX2                !
 ! A56   A(9,10,44)            107.3007         estimate D2E/DX2                !
 ! A57   A(9,10,45)            109.7439         estimate D2E/DX2                !
 ! A58   A(11,10,44)           108.1054         estimate D2E/DX2                !
 ! A59   A(11,10,45)           111.4006         estimate D2E/DX2                !
 ! A60   A(44,10,45)           106.1856         estimate D2E/DX2                !
 ! A61   A(10,11,12)           112.0801         estimate D2E/DX2                !
 ! A62   A(10,11,46)           108.6864         estimate D2E/DX2                !
 ! A63   A(10,11,47)           110.8223         estimate D2E/DX2                !
 ! A64   A(12,11,46)           108.1527         estimate D2E/DX2                !
 ! A65   A(12,11,47)           110.0717         estimate D2E/DX2                !
 ! A66   A(46,11,47)           106.8405         estimate D2E/DX2                !
 ! A67   A(11,12,13)           111.2025         estimate D2E/DX2                !
 ! A68   A(11,12,48)           109.4203         estimate D2E/DX2                !
 ! A69   A(11,12,49)           110.5439         estimate D2E/DX2                !
 ! A70   A(13,12,48)           108.8147         estimate D2E/DX2                !
 ! A71   A(13,12,49)           108.7461         estimate D2E/DX2                !
 ! A72   A(48,12,49)           108.0397         estimate D2E/DX2                !
 ! A73   A(12,13,50)           109.5623         estimate D2E/DX2                !
 ! A74   A(12,13,51)           110.2761         estimate D2E/DX2                !
 ! A75   A(12,13,52)           110.3452         estimate D2E/DX2                !
 ! A76   A(50,13,51)           108.6223         estimate D2E/DX2                !
 ! A77   A(50,13,52)           108.6702         estimate D2E/DX2                !
 ! A78   A(51,13,52)           109.3254         estimate D2E/DX2                !
 ! A79   A(7,14,15)            117.7862         estimate D2E/DX2                !
 ! A80   A(7,14,53)            110.0089         estimate D2E/DX2                !
 ! A81   A(7,14,54)            110.8811         estimate D2E/DX2                !
 ! A82   A(15,14,53)           106.6857         estimate D2E/DX2                !
 ! A83   A(15,14,54)           105.592          estimate D2E/DX2                !
 ! A84   A(53,14,54)           105.0403         estimate D2E/DX2                !
 ! A85   A(14,15,16)           110.8045         estimate D2E/DX2                !
 ! A86   A(14,15,55)           110.4217         estimate D2E/DX2                !
 ! A87   A(14,15,56)           111.3069         estimate D2E/DX2                !
 ! A88   A(16,15,55)           107.9926         estimate D2E/DX2                !
 ! A89   A(16,15,56)           108.2815         estimate D2E/DX2                !
 ! A90   A(55,15,56)           107.9142         estimate D2E/DX2                !
 ! A91   A(15,16,17)           113.0597         estimate D2E/DX2                !
 ! A92   A(15,16,57)           108.8507         estimate D2E/DX2                !
 ! A93   A(15,16,58)           110.0002         estimate D2E/DX2                !
 ! A94   A(17,16,57)           107.6504         estimate D2E/DX2                !
 ! A95   A(17,16,58)           110.0416         estimate D2E/DX2                !
 ! A96   A(57,16,58)           107.0245         estimate D2E/DX2                !
 ! A97   A(16,17,18)           114.9446         estimate D2E/DX2                !
 ! A98   A(16,17,59)           108.4499         estimate D2E/DX2                !
 ! A99   A(16,17,60)           108.9182         estimate D2E/DX2                !
 ! A100  A(18,17,59)           108.7601         estimate D2E/DX2                !
 ! A101  A(18,17,60)           108.5528         estimate D2E/DX2                !
 ! A102  A(59,17,60)           106.9258         estimate D2E/DX2                !
 ! A103  A(17,18,19)           113.1164         estimate D2E/DX2                !
 ! A104  A(17,18,61)           110.6319         estimate D2E/DX2                !
 ! A105  A(17,18,62)           108.0301         estimate D2E/DX2                !
 ! A106  A(19,18,61)           109.7509         estimate D2E/DX2                !
 ! A107  A(19,18,62)           108.219          estimate D2E/DX2                !
 ! A108  A(61,18,62)           106.8542         estimate D2E/DX2                !
 ! A109  A(18,19,63)           110.6401         estimate D2E/DX2                !
 ! A110  A(18,19,64)           109.4079         estimate D2E/DX2                !
 ! A111  A(18,19,65)           110.5067         estimate D2E/DX2                !
 ! A112  A(63,19,64)           107.9957         estimate D2E/DX2                !
 ! A113  A(63,19,65)           109.6161         estimate D2E/DX2                !
 ! A114  A(64,19,65)           108.6126         estimate D2E/DX2                !
 ! A115  A(7,20,21)            115.2223         estimate D2E/DX2                !
 ! A116  A(7,20,66)            111.3707         estimate D2E/DX2                !
 ! A117  A(7,20,67)            110.77           estimate D2E/DX2                !
 ! A118  A(21,20,66)           107.0183         estimate D2E/DX2                !
 ! A119  A(21,20,67)           109.1389         estimate D2E/DX2                !
 ! A120  A(66,20,67)           102.4991         estimate D2E/DX2                !
 ! A121  A(20,21,22)           111.4416         estimate D2E/DX2                !
 ! A122  A(20,21,68)           111.0714         estimate D2E/DX2                !
 ! A123  A(20,21,69)           108.7554         estimate D2E/DX2                !
 ! A124  A(22,21,68)           109.4132         estimate D2E/DX2                !
 ! A125  A(22,21,69)           107.8243         estimate D2E/DX2                !
 ! A126  A(68,21,69)           108.2226         estimate D2E/DX2                !
 ! A127  A(21,22,23)           112.9299         estimate D2E/DX2                !
 ! A128  A(21,22,70)           109.2528         estimate D2E/DX2                !
 ! A129  A(21,22,71)           109.6303         estimate D2E/DX2                !
 ! A130  A(23,22,70)           107.4655         estimate D2E/DX2                !
 ! A131  A(23,22,71)           109.7492         estimate D2E/DX2                !
 ! A132  A(70,22,71)           107.6561         estimate D2E/DX2                !
 ! A133  A(22,23,24)           113.902          estimate D2E/DX2                !
 ! A134  A(22,23,72)           107.1827         estimate D2E/DX2                !
 ! A135  A(22,23,73)           109.7465         estimate D2E/DX2                !
 ! A136  A(24,23,72)           108.0933         estimate D2E/DX2                !
 ! A137  A(24,23,73)           111.2398         estimate D2E/DX2                !
 ! A138  A(72,23,73)           106.2981         estimate D2E/DX2                !
 ! A139  A(23,24,25)           112.3822         estimate D2E/DX2                !
 ! A140  A(23,24,74)           111.1775         estimate D2E/DX2                !
 ! A141  A(23,24,75)           108.7305         estimate D2E/DX2                !
 ! A142  A(25,24,74)           109.6855         estimate D2E/DX2                !
 ! A143  A(25,24,75)           107.6321         estimate D2E/DX2                !
 ! A144  A(74,24,75)           107.0203         estimate D2E/DX2                !
 ! A145  A(24,25,76)           109.535          estimate D2E/DX2                !
 ! A146  A(24,25,77)           110.3129         estimate D2E/DX2                !
 ! A147  A(24,25,78)           111.1291         estimate D2E/DX2                !
 ! A148  A(76,25,77)           108.1619         estimate D2E/DX2                !
 ! A149  A(76,25,78)           108.4905         estimate D2E/DX2                !
 ! A150  A(77,25,78)           109.1418         estimate D2E/DX2                !
 ! A151  A(38,26,41)            54.2898         estimate D2E/DX2                !
 ! A152  A(38,26,53)            61.3286         estimate D2E/DX2                !
 ! A153  A(41,26,53)            58.2039         estimate D2E/DX2                !
 ! A154  A(6,38,26)            142.7462         estimate D2E/DX2                !
 ! A155  A(8,41,26)            136.5534         estimate D2E/DX2                !
 ! A156  A(14,53,26)           133.9089         estimate D2E/DX2                !
 ! D1    D(27,1,2,3)          -178.3216         estimate D2E/DX2                !
 ! D2    D(27,1,2,30)          -57.1692         estimate D2E/DX2                !
 ! D3    D(27,1,2,31)           60.4985         estimate D2E/DX2                !
 ! D4    D(28,1,2,3)           -58.7455         estimate D2E/DX2                !
 ! D5    D(28,1,2,30)           62.4069         estimate D2E/DX2                !
 ! D6    D(28,1,2,31)         -179.9253         estimate D2E/DX2                !
 ! D7    D(29,1,2,3)            62.071          estimate D2E/DX2                !
 ! D8    D(29,1,2,30)         -176.7766         estimate D2E/DX2                !
 ! D9    D(29,1,2,31)          -59.1089         estimate D2E/DX2                !
 ! D10   D(1,2,3,4)           -170.2384         estimate D2E/DX2                !
 ! D11   D(1,2,3,32)           -51.2414         estimate D2E/DX2                !
 ! D12   D(1,2,3,33)            65.5828         estimate D2E/DX2                !
 ! D13   D(30,2,3,4)            69.8285         estimate D2E/DX2                !
 ! D14   D(30,2,3,32)         -171.1745         estimate D2E/DX2                !
 ! D15   D(30,2,3,33)          -54.3503         estimate D2E/DX2                !
 ! D16   D(31,2,3,4)           -49.8691         estimate D2E/DX2                !
 ! D17   D(31,2,3,32)           69.128          estimate D2E/DX2                !
 ! D18   D(31,2,3,33)         -174.0479         estimate D2E/DX2                !
 ! D19   D(2,3,4,5)            -70.0943         estimate D2E/DX2                !
 ! D20   D(2,3,4,34)            51.7445         estimate D2E/DX2                !
 ! D21   D(2,3,4,35)           167.4096         estimate D2E/DX2                !
 ! D22   D(32,3,4,5)           170.1917         estimate D2E/DX2                !
 ! D23   D(32,3,4,34)          -67.9695         estimate D2E/DX2                !
 ! D24   D(32,3,4,35)           47.6956         estimate D2E/DX2                !
 ! D25   D(33,3,4,5)            53.4841         estimate D2E/DX2                !
 ! D26   D(33,3,4,34)          175.323          estimate D2E/DX2                !
 ! D27   D(33,3,4,35)          -69.012          estimate D2E/DX2                !
 ! D28   D(3,4,5,6)            -78.0129         estimate D2E/DX2                !
 ! D29   D(3,4,5,36)           162.9196         estimate D2E/DX2                !
 ! D30   D(3,4,5,37)            47.4757         estimate D2E/DX2                !
 ! D31   D(34,4,5,6)           160.1959         estimate D2E/DX2                !
 ! D32   D(34,4,5,36)           41.1284         estimate D2E/DX2                !
 ! D33   D(34,4,5,37)          -74.3155         estimate D2E/DX2                !
 ! D34   D(35,4,5,6)            44.3092         estimate D2E/DX2                !
 ! D35   D(35,4,5,36)          -74.7584         estimate D2E/DX2                !
 ! D36   D(35,4,5,37)          169.7978         estimate D2E/DX2                !
 ! D37   D(4,5,6,7)            172.0707         estimate D2E/DX2                !
 ! D38   D(4,5,6,38)           -64.5611         estimate D2E/DX2                !
 ! D39   D(4,5,6,39)            46.1694         estimate D2E/DX2                !
 ! D40   D(36,5,6,7)           -70.0224         estimate D2E/DX2                !
 ! D41   D(36,5,6,38)           53.3458         estimate D2E/DX2                !
 ! D42   D(36,5,6,39)          164.0763         estimate D2E/DX2                !
 ! D43   D(37,5,6,7)            48.2047         estimate D2E/DX2                !
 ! D44   D(37,5,6,38)          171.5729         estimate D2E/DX2                !
 ! D45   D(37,5,6,39)          -77.6966         estimate D2E/DX2                !
 ! D46   D(5,6,7,8)             54.254          estimate D2E/DX2                !
 ! D47   D(5,6,7,14)           175.388          estimate D2E/DX2                !
 ! D48   D(5,6,7,20)           -63.3728         estimate D2E/DX2                !
 ! D49   D(38,6,7,8)           -67.0572         estimate D2E/DX2                !
 ! D50   D(38,6,7,14)           54.0768         estimate D2E/DX2                !
 ! D51   D(38,6,7,20)          175.316          estimate D2E/DX2                !
 ! D52   D(39,6,7,8)           179.4508         estimate D2E/DX2                !
 ! D53   D(39,6,7,14)          -59.4152         estimate D2E/DX2                !
 ! D54   D(39,6,7,20)           61.8241         estimate D2E/DX2                !
 ! D55   D(5,6,38,26)         -114.8483         estimate D2E/DX2                !
 ! D56   D(7,6,38,26)           11.9986         estimate D2E/DX2                !
 ! D57   D(39,6,38,26)         130.1994         estimate D2E/DX2                !
 ! D58   D(6,7,8,9)            167.5908         estimate D2E/DX2                !
 ! D59   D(6,7,8,40)           -71.2949         estimate D2E/DX2                !
 ! D60   D(6,7,8,41)            43.9282         estimate D2E/DX2                !
 ! D61   D(14,7,8,9)            49.3961         estimate D2E/DX2                !
 ! D62   D(14,7,8,40)          170.5103         estimate D2E/DX2                !
 ! D63   D(14,7,8,41)          -74.2666         estimate D2E/DX2                !
 ! D64   D(20,7,8,9)           -74.0108         estimate D2E/DX2                !
 ! D65   D(20,7,8,40)           47.1035         estimate D2E/DX2                !
 ! D66   D(20,7,8,41)          162.3266         estimate D2E/DX2                !
 ! D67   D(6,7,14,15)          150.6177         estimate D2E/DX2                !
 ! D68   D(6,7,14,53)          -86.8841         estimate D2E/DX2                !
 ! D69   D(6,7,14,54)           28.8693         estimate D2E/DX2                !
 ! D70   D(8,7,14,15)          -90.6937         estimate D2E/DX2                !
 ! D71   D(8,7,14,53)           31.8045         estimate D2E/DX2                !
 ! D72   D(8,7,14,54)          147.5578         estimate D2E/DX2                !
 ! D73   D(20,7,14,15)          30.7728         estimate D2E/DX2                !
 ! D74   D(20,7,14,53)         153.271          estimate D2E/DX2                !
 ! D75   D(20,7,14,54)         -90.9757         estimate D2E/DX2                !
 ! D76   D(6,7,20,21)          -51.2059         estimate D2E/DX2                !
 ! D77   D(6,7,20,66)           70.9164         estimate D2E/DX2                !
 ! D78   D(6,7,20,67)         -175.695          estimate D2E/DX2                !
 ! D79   D(8,7,20,21)         -168.8583         estimate D2E/DX2                !
 ! D80   D(8,7,20,66)          -46.736          estimate D2E/DX2                !
 ! D81   D(8,7,20,67)           66.6526         estimate D2E/DX2                !
 ! D82   D(14,7,20,21)          67.4525         estimate D2E/DX2                !
 ! D83   D(14,7,20,66)        -170.4252         estimate D2E/DX2                !
 ! D84   D(14,7,20,67)         -57.0366         estimate D2E/DX2                !
 ! D85   D(7,8,9,10)          -179.6547         estimate D2E/DX2                !
 ! D86   D(7,8,9,42)           -61.8375         estimate D2E/DX2                !
 ! D87   D(7,8,9,43)            58.5707         estimate D2E/DX2                !
 ! D88   D(40,8,9,10)           57.746          estimate D2E/DX2                !
 ! D89   D(40,8,9,42)          175.5632         estimate D2E/DX2                !
 ! D90   D(40,8,9,43)          -64.0285         estimate D2E/DX2                !
 ! D91   D(41,8,9,10)          -54.2843         estimate D2E/DX2                !
 ! D92   D(41,8,9,42)           63.5329         estimate D2E/DX2                !
 ! D93   D(41,8,9,43)         -176.0589         estimate D2E/DX2                !
 ! D94   D(7,8,41,26)           38.3038         estimate D2E/DX2                !
 ! D95   D(9,8,41,26)          -90.3282         estimate D2E/DX2                !
 ! D96   D(40,8,41,26)         156.398          estimate D2E/DX2                !
 ! D97   D(8,9,10,11)          -67.6781         estimate D2E/DX2                !
 ! D98   D(8,9,10,44)          172.8197         estimate D2E/DX2                !
 ! D99   D(8,9,10,45)           57.8594         estimate D2E/DX2                !
 ! D100  D(42,9,10,11)         172.304          estimate D2E/DX2                !
 ! D101  D(42,9,10,44)          52.8018         estimate D2E/DX2                !
 ! D102  D(42,9,10,45)         -62.1585         estimate D2E/DX2                !
 ! D103  D(43,9,10,11)          55.362          estimate D2E/DX2                !
 ! D104  D(43,9,10,44)         -64.1402         estimate D2E/DX2                !
 ! D105  D(43,9,10,45)        -179.1005         estimate D2E/DX2                !
 ! D106  D(9,10,11,12)         106.7451         estimate D2E/DX2                !
 ! D107  D(9,10,11,46)        -133.7752         estimate D2E/DX2                !
 ! D108  D(9,10,11,47)         -16.657          estimate D2E/DX2                !
 ! D109  D(44,10,11,12)       -134.211          estimate D2E/DX2                !
 ! D110  D(44,10,11,46)        -14.7312         estimate D2E/DX2                !
 ! D111  D(44,10,11,47)        102.387          estimate D2E/DX2                !
 ! D112  D(45,10,11,12)        -17.9076         estimate D2E/DX2                !
 ! D113  D(45,10,11,46)        101.5722         estimate D2E/DX2                !
 ! D114  D(45,10,11,47)       -141.3096         estimate D2E/DX2                !
 ! D115  D(10,11,12,13)       -176.7621         estimate D2E/DX2                !
 ! D116  D(10,11,12,48)         63.0022         estimate D2E/DX2                !
 ! D117  D(10,11,12,49)        -55.865          estimate D2E/DX2                !
 ! D118  D(46,11,12,13)         63.4458         estimate D2E/DX2                !
 ! D119  D(46,11,12,48)        -56.7899         estimate D2E/DX2                !
 ! D120  D(46,11,12,49)       -175.6571         estimate D2E/DX2                !
 ! D121  D(47,11,12,13)        -52.939          estimate D2E/DX2                !
 ! D122  D(47,11,12,48)       -173.1747         estimate D2E/DX2                !
 ! D123  D(47,11,12,49)         67.9581         estimate D2E/DX2                !
 ! D124  D(11,12,13,50)       -179.1615         estimate D2E/DX2                !
 ! D125  D(11,12,13,51)         61.3299         estimate D2E/DX2                !
 ! D126  D(11,12,13,52)        -59.5512         estimate D2E/DX2                !
 ! D127  D(48,12,13,50)        -58.5682         estimate D2E/DX2                !
 ! D128  D(48,12,13,51)       -178.0768         estimate D2E/DX2                !
 ! D129  D(48,12,13,52)         61.0421         estimate D2E/DX2                !
 ! D130  D(49,12,13,50)         58.8909         estimate D2E/DX2                !
 ! D131  D(49,12,13,51)        -60.6177         estimate D2E/DX2                !
 ! D132  D(49,12,13,52)        178.5012         estimate D2E/DX2                !
 ! D133  D(7,14,15,16)         169.5982         estimate D2E/DX2                !
 ! D134  D(7,14,15,55)         -70.7935         estimate D2E/DX2                !
 ! D135  D(7,14,15,56)          49.0424         estimate D2E/DX2                !
 ! D136  D(53,14,15,16)         45.4242         estimate D2E/DX2                !
 ! D137  D(53,14,15,55)        165.0325         estimate D2E/DX2                !
 ! D138  D(53,14,15,56)        -75.1316         estimate D2E/DX2                !
 ! D139  D(54,14,15,16)        -65.9773         estimate D2E/DX2                !
 ! D140  D(54,14,15,55)         53.6311         estimate D2E/DX2                !
 ! D141  D(54,14,15,56)        173.467          estimate D2E/DX2                !
 ! D142  D(7,14,53,26)          50.9435         estimate D2E/DX2                !
 ! D143  D(15,14,53,26)        179.7784         estimate D2E/DX2                !
 ! D144  D(54,14,53,26)        -68.4384         estimate D2E/DX2                !
 ! D145  D(14,15,16,17)        172.6778         estimate D2E/DX2                !
 ! D146  D(14,15,16,57)         53.1031         estimate D2E/DX2                !
 ! D147  D(14,15,16,58)        -63.865          estimate D2E/DX2                !
 ! D148  D(55,15,16,17)         51.6231         estimate D2E/DX2                !
 ! D149  D(55,15,16,57)        -67.9517         estimate D2E/DX2                !
 ! D150  D(55,15,16,58)        175.0802         estimate D2E/DX2                !
 ! D151  D(56,15,16,17)        -64.9855         estimate D2E/DX2                !
 ! D152  D(56,15,16,57)        175.4398         estimate D2E/DX2                !
 ! D153  D(56,15,16,58)         58.4716         estimate D2E/DX2                !
 ! D154  D(15,16,17,18)         61.0763         estimate D2E/DX2                !
 ! D155  D(15,16,17,59)       -176.9797         estimate D2E/DX2                !
 ! D156  D(15,16,17,60)        -60.9539         estimate D2E/DX2                !
 ! D157  D(57,16,17,18)       -178.6612         estimate D2E/DX2                !
 ! D158  D(57,16,17,59)        -56.7171         estimate D2E/DX2                !
 ! D159  D(57,16,17,60)         59.3087         estimate D2E/DX2                !
 ! D160  D(58,16,17,18)        -62.358          estimate D2E/DX2                !
 ! D161  D(58,16,17,59)         59.586          estimate D2E/DX2                !
 ! D162  D(58,16,17,60)        175.6118         estimate D2E/DX2                !
 ! D163  D(16,17,18,19)         59.3493         estimate D2E/DX2                !
 ! D164  D(16,17,18,61)        -64.247          estimate D2E/DX2                !
 ! D165  D(16,17,18,62)        179.1145         estimate D2E/DX2                !
 ! D166  D(59,17,18,19)        -62.4267         estimate D2E/DX2                !
 ! D167  D(59,17,18,61)        173.977          estimate D2E/DX2                !
 ! D168  D(59,17,18,62)         57.3385         estimate D2E/DX2                !
 ! D169  D(60,17,18,19)       -178.4232         estimate D2E/DX2                !
 ! D170  D(60,17,18,61)         57.9805         estimate D2E/DX2                !
 ! D171  D(60,17,18,62)        -58.658          estimate D2E/DX2                !
 ! D172  D(17,18,19,63)        -70.1247         estimate D2E/DX2                !
 ! D173  D(17,18,19,64)        171.0113         estimate D2E/DX2                !
 ! D174  D(17,18,19,65)         51.4693         estimate D2E/DX2                !
 ! D175  D(61,18,19,63)         53.9548         estimate D2E/DX2                !
 ! D176  D(61,18,19,64)        -64.9092         estimate D2E/DX2                !
 ! D177  D(61,18,19,65)        175.5488         estimate D2E/DX2                !
 ! D178  D(62,18,19,63)        170.2184         estimate D2E/DX2                !
 ! D179  D(62,18,19,64)         51.3545         estimate D2E/DX2                !
 ! D180  D(62,18,19,65)        -68.1875         estimate D2E/DX2                !
 ! D181  D(7,20,21,22)        -164.8385         estimate D2E/DX2                !
 ! D182  D(7,20,21,68)         -42.5624         estimate D2E/DX2                !
 ! D183  D(7,20,21,69)          76.4331         estimate D2E/DX2                !
 ! D184  D(66,20,21,22)         70.7297         estimate D2E/DX2                !
 ! D185  D(66,20,21,68)       -166.9942         estimate D2E/DX2                !
 ! D186  D(66,20,21,69)        -47.9986         estimate D2E/DX2                !
 ! D187  D(67,20,21,22)        -39.5008         estimate D2E/DX2                !
 ! D188  D(67,20,21,68)         82.7753         estimate D2E/DX2                !
 ! D189  D(67,20,21,69)       -158.2292         estimate D2E/DX2                !
 ! D190  D(20,21,22,23)        170.7175         estimate D2E/DX2                !
 ! D191  D(20,21,22,70)         51.1836         estimate D2E/DX2                !
 ! D192  D(20,21,22,71)        -66.5702         estimate D2E/DX2                !
 ! D193  D(68,21,22,23)         47.4908         estimate D2E/DX2                !
 ! D194  D(68,21,22,70)        -72.0432         estimate D2E/DX2                !
 ! D195  D(68,21,22,71)        170.203          estimate D2E/DX2                !
 ! D196  D(69,21,22,23)        -69.9991         estimate D2E/DX2                !
 ! D197  D(69,21,22,70)        170.467          estimate D2E/DX2                !
 ! D198  D(69,21,22,71)         52.7132         estimate D2E/DX2                !
 ! D199  D(21,22,23,24)         64.3679         estimate D2E/DX2                !
 ! D200  D(21,22,23,72)       -176.1199         estimate D2E/DX2                !
 ! D201  D(21,22,23,73)        -61.0896         estimate D2E/DX2                !
 ! D202  D(70,22,23,24)       -175.0726         estimate D2E/DX2                !
 ! D203  D(70,22,23,72)        -55.5604         estimate D2E/DX2                !
 ! D204  D(70,22,23,73)         59.4698         estimate D2E/DX2                !
 ! D205  D(71,22,23,24)        -58.278          estimate D2E/DX2                !
 ! D206  D(71,22,23,72)         61.2342         estimate D2E/DX2                !
 ! D207  D(71,22,23,73)        176.2644         estimate D2E/DX2                !
 ! D208  D(22,23,24,25)       -101.1365         estimate D2E/DX2                !
 ! D209  D(22,23,24,74)         22.2463         estimate D2E/DX2                !
 ! D210  D(22,23,24,75)        139.816          estimate D2E/DX2                !
 ! D211  D(72,23,24,25)        139.8683         estimate D2E/DX2                !
 ! D212  D(72,23,24,74)        -96.749          estimate D2E/DX2                !
 ! D213  D(72,23,24,75)         20.8208         estimate D2E/DX2                !
 ! D214  D(73,23,24,25)         23.5257         estimate D2E/DX2                !
 ! D215  D(73,23,24,74)        146.9085         estimate D2E/DX2                !
 ! D216  D(73,23,24,75)        -95.5217         estimate D2E/DX2                !
 ! D217  D(23,24,25,76)       -176.5144         estimate D2E/DX2                !
 ! D218  D(23,24,25,77)        -57.5668         estimate D2E/DX2                !
 ! D219  D(23,24,25,78)         63.6251         estimate D2E/DX2                !
 ! D220  D(74,24,25,76)         59.2725         estimate D2E/DX2                !
 ! D221  D(74,24,25,77)        178.2202         estimate D2E/DX2                !
 ! D222  D(74,24,25,78)        -60.588          estimate D2E/DX2                !
 ! D223  D(75,24,25,76)        -56.8259         estimate D2E/DX2                !
 ! D224  D(75,24,25,77)         62.1218         estimate D2E/DX2                !
 ! D225  D(75,24,25,78)       -176.6864         estimate D2E/DX2                !
 ! D226  D(41,26,38,6)          33.1312         estimate D2E/DX2                !
 ! D227  D(53,26,38,6)         -36.5954         estimate D2E/DX2                !
 ! D228  D(38,26,41,8)         -65.166          estimate D2E/DX2                !
 ! D229  D(53,26,41,8)          10.3812         estimate D2E/DX2                !
 ! D230  D(38,26,53,14)         -3.0429         estimate D2E/DX2                !
 ! D231  D(41,26,53,14)        -66.7015         estimate D2E/DX2                !
 --------------------------------------------------------------------------------
 Trust Radius=3.00D-01 FncErr=1.00D-07 GrdErr=1.00D-06 EigMax=2.50D+02 EigMin=1.00D-04
 Number of steps in this run=    468 maximum allowed number of steps=    468.
 GradGradGradGradGradGradGradGradGradGradGradGradGradGradGradGradGradGrad

 Leave Link  103 at Sat Aug 21 09:33:14 2021, MaxMem=   104857600 cpu:               0.7 elap:               0.1
 (Enter /sw/arch/RedHatEnterpriseServer7/EB_production/2020/software/Gaussian/g16.c01/l202.exe)
 Stoichiometry    C24H52BrN
 Framework group  C1[X(C24H52BrN)]
 Deg. of freedom   228
 Full point group                 C1      NOp   1
 Largest Abelian subgroup         C1      NOp   1
 Largest concise Abelian subgroup C1      NOp   1
                         Standard orientation:                         
 ---------------------------------------------------------------------
 Center     Atomic      Atomic             Coordinates (Angstroms)
 Number     Number       Type             X           Y           Z
 ---------------------------------------------------------------------
      1          6           0        6.097011   -1.331597    0.064833
      2          6           0        4.702491   -1.939929   -0.047759
      3          6           0        3.931773   -1.810738    1.275924
      4          6           0        2.619158   -2.617661    1.283629
      5          6           0        1.521122   -2.052376    0.363163
      6          6           0        0.802972   -0.823545    0.986430
      7          7           0       -0.158690   -0.088120    0.084088
      8          6           0       -1.153872   -1.084103   -0.455568
      9          6           0       -2.400757   -0.502450   -1.161645
     10          6           0       -3.356419   -1.598368   -1.667769
     11          6           0       -2.776527   -2.443636   -2.822732
     12          6           0       -2.380683   -3.854985   -2.363155
     13          6           0       -1.737664   -4.645087   -3.498965
     14          6           0       -0.825449    0.988693    0.915206
     15          6           0       -1.290224    2.283015    0.187455
     16          6           0       -2.165204    3.144690    1.111648
     17          6           0       -2.506368    4.520117    0.509284
     18          6           0       -3.300647    4.472789   -0.808670
     19          6           0       -4.642912    3.754376   -0.674823
     20          6           0        0.599018    0.500039   -1.082667
     21          6           0        1.845421    1.341694   -0.704446
     22          6           0        2.326614    2.194232   -1.886689
     23          6           0        3.413532    3.207904   -1.491267
     24          6           0        4.728335    2.559085   -1.010548
     25          6           0        4.856830    2.563684    0.513349
     26         35           0       -2.134220   -1.551790    2.933005
     27          1           0        6.618246   -1.411818   -0.912312
     28          1           0        6.028153   -0.260048    0.343185
     29          1           0        6.693496   -1.871341    0.830815
     30          1           0        4.160041   -1.413612   -0.860633
     31          1           0        4.803930   -3.011459   -0.325720
     32          1           0        4.568962   -2.203474    2.098526
     33          1           0        3.738971   -0.740181    1.495278
     34          1           0        2.840867   -3.663585    0.977464
     35          1           0        2.233500   -2.668754    2.325374
     36          1           0        0.776836   -2.863919    0.217110
     37          1           0        1.952690   -1.828253   -0.627636
     38          1           0        0.281939   -1.188863    1.887599
     39          1           0        1.561306   -0.127655    1.399064
     40          1           0       -0.652269   -1.747416   -1.190910
     41          1           0       -1.506814   -1.762247    0.341766
     42          1           0       -2.987132    0.108153   -0.445350
     43          1           0       -2.106147    0.134280   -2.021245
     44          1           0       -4.274820   -1.091387   -2.037726
     45          1           0       -3.677418   -2.239475   -0.816897
     46          1           0       -3.550308   -2.541723   -3.616022
     47          1           0       -1.902974   -1.933912   -3.285880
     48          1           0       -3.286498   -4.398454   -2.016238
     49          1           0       -1.665659   -3.802476   -1.515672
     50          1           0       -1.476634   -5.663643   -3.142073
     51          1           0       -0.809163   -4.140426   -3.841505
     52          1           0       -2.442421   -4.737167   -4.352702
     53          1           0       -1.711828    0.576752    1.425499
     54          1           0       -0.152916    1.331103    1.735017
     55          1           0       -0.414633    2.890094   -0.119120
     56          1           0       -1.872769    2.046152   -0.718557
     57          1           0       -1.618052    3.319920    2.063842
     58          1           0       -3.098408    2.599438    1.368366
     59          1           0       -3.090987    5.097197    1.258586
     60          1           0       -1.562507    5.080829    0.333550
     61          1           0       -2.698844    3.997018   -1.611246
     62          1           0       -3.496770    5.518662   -1.129908
     63          1           0       -4.490549    2.664743   -0.527550
     64          1           0       -5.231484    3.895727   -1.605668
     65          1           0       -5.222545    4.168381    0.177410
     66          1           0        0.941370   -0.291192   -1.783234
     67          1           0       -0.071669    1.110101   -1.719252
     68          1           0        1.633980    1.999709    0.162444
     69          1           0        2.669077    0.653393   -0.424715
     70          1           0        1.467930    2.768956   -2.297828
     71          1           0        2.706899    1.531561   -2.694868
     72          1           0        3.638841    3.816931   -2.394063
     73          1           0        3.010859    3.913445   -0.731234
     74          1           0        4.825774    1.519085   -1.391492
     75          1           0        5.583615    3.138023   -1.422404
     76          1           0        5.842891    2.145321    0.803899
     77          1           0        4.793015    3.602048    0.902559
     78          1           0        4.062250    1.949888    0.983220
 ---------------------------------------------------------------------
 Rotational constants (GHZ):           0.1256695           0.0984167           0.0790209
 Leave Link  202 at Sat Aug 21 09:33:14 2021, MaxMem=   104857600 cpu:               0.6 elap:               0.1
 (Enter /sw/arch/RedHatEnterpriseServer7/EB_production/2020/software/Gaussian/g16.c01/l301.exe)
 Standard basis: TZVP (5D, 7F)
 Ernie: Thresh=  0.10000D-02 Tol=  0.10000D-05 Strict=F.
 There are   851 symmetry adapted cartesian basis functions of A   symmetry.
 There are   823 symmetry adapted basis functions of A   symmetry.
   823 basis functions,  1389 primitive gaussians,   851 cartesian basis functions
   119 alpha electrons      119 beta electrons
       nuclear repulsion energy      3147.9316783514 Hartrees.
 IExCor=  404 DFT=T Ex=B Corr=P86 ExCW=0 ScaHFX=  0.000000
 ScaDFX=  1.000000  1.000000  1.000000  1.000000 ScalE2=  1.000000  1.000000
 IRadAn=      5 IRanWt=     -1 IRanGd=            0 ICorTp=0 IEmpDi=131
 NAtoms=   78 NActive=   78 NUniq=   78 SFac= 1.00D+00 NAtFMM=   60 NAOKFM=T Big=T
 Integral buffers will be    131072 words long.
 Raffenetti 2 integral format.
 Two-electron integral symmetry is turned on.
 R6Disp:  Grimme-D3 Dispersion energy=       -0.1110160111 Hartrees.
 Nuclear repulsion after empirical dispersion term =     3147.8206623403 Hartrees.
 ------------------------------------------------------------------------------
 Polarizable Continuum Model (PCM)
 =================================
 Model                : PCM.
 Atomic radii         : UFF (Universal Force Field).
 Polarization charges : Total charges.
 Charge compensation  : None.
 Solution method      : On-the-fly selection.
 Cavity type          : Scaled VdW (van der Waals Surface) (Alpha=1.100).
 Cavity algorithm     : GePol (No added spheres)
                        Default sphere list used, NSphG=   78.
                        Lebedev-Laikov grids with approx.  5.0 points / Ang**2.
                        Smoothing algorithm: York/Karplus (Gamma=1.0000).
                        Polarization charges: spherical gaussians, with
                                              point-specific exponents (IZeta= 3).
                        Self-potential: point-specific (ISelfS= 7).
                        Self-field    : sphere-specific E.n sum rule (ISelfD= 2).
 1st derivatives      : Analytical E(r).r(x)/FMM algorithm (CHGder, D1EAlg=3).
                        Cavity 1st derivative terms included.
 Solvent              : Water, Eps=  78.355300 Eps(inf)=   1.777849
 ------------------------------------------------------------------------------
 GePol: Number of generator spheres                  =      78
 GePol: Total number of spheres                      =      78
 GePol: Number of exposed spheres                    =      77 ( 98.72%)
 GePol: Number of points                             =    4588
 GePol: Average weight of points                     =       0.13
 GePol: Minimum weight of points                     =   0.27D-10
 GePol: Maximum weight of points                     =    0.20577
 GePol: Number of points with low weight             =     364
 GePol: Fraction of low-weight points (<1% of avg)   =       7.93%
 GePol: Cavity surface area                          =    595.626 Ang**2
 GePol: Cavity volume                                =    690.183 Ang**3
 Leave Link  301 at Sat Aug 21 09:33:15 2021, MaxMem=   104857600 cpu:               5.9 elap:               0.3
 (Enter /sw/arch/RedHatEnterpriseServer7/EB_production/2020/software/Gaussian/g16.c01/l302.exe)
 NPDir=0 NMtPBC=     1 NCelOv=     1 NCel=       1 NClECP=     1 NCelD=      1
         NCelK=      1 NCelE2=     1 NClLst=     1 CellRange=     0.0.
 One-electron integrals computed using PRISM.
 One-electron integral symmetry used in STVInt
 PrsmSu:  requested number of processors reduced to:  11 ShMem   1 Linda.
 NBasis=   823 RedAO= T EigKep=  6.45D-05  NBF=   823
 NBsUse=   823 1.00D-06 EigRej= -1.00D+00 NBFU=   823
 Precomputing XC quadrature grid using
 IXCGrd= 4 IRadAn=           5 IRanWt=          -1 IRanGd=           0 AccXCQ= 0.00D+00.
 Generated NRdTot=       0 NPtTot=           0 NUsed=           0 NTot=          32
 NSgBfM=   809   801   801   804   809 MxSgAt=    78 MxSgA2=    78.
 Leave Link  302 at Sat Aug 21 09:33:16 2021, MaxMem=   104857600 cpu:              33.4 elap:               1.4
 (Enter /sw/arch/RedHatEnterpriseServer7/EB_production/2020/software/Gaussian/g16.c01/l303.exe)
 DipDrv:  MaxL=1.
 Leave Link  303 at Sat Aug 21 09:33:17 2021, MaxMem=   104857600 cpu:               4.6 elap:               0.2
 (Enter /sw/arch/RedHatEnterpriseServer7/EB_production/2020/software/Gaussian/g16.c01/l401.exe)
 ExpMin= 9.52D-02 ExpMax= 5.65D+05 ExpMxC= 5.46D+03 IAcc=3 IRadAn=         5 AccDes= 0.00D+00
 Harris functional with IExCor=  404 and IRadAn=       5 diagonalized for initial guess.
 HarFok:  IExCor=  404 AccDes= 0.00D+00 IRadAn=         5 IDoV= 1 UseB2=F ITyADJ=14
 ICtDFT=  3500011 ScaDFX=  1.000000  1.000000  1.000000  1.000000
 FoFCou: FMM=F IPFlag=           0 FMFlag=      100000 FMFlg1=        2001
         NFxFlg=           0 DoJE=T BraDBF=F KetDBF=T FulRan=T
         wScrn=  0.000000 ICntrl=       500 IOpCl=  0 I1Cent=   200000004 NGrid=           0
         NMat0=    1 NMatS0=      1 NMatT0=    0 NMatD0=    1 NMtDS0=    0 NMtDT0=    0
 Petite list used in FoFCou.
 Harris En= -3576.24610199208    
 JPrj=0 DoOrth=F DoCkMO=F.
 Leave Link  401 at Sat Aug 21 09:33:21 2021, MaxMem=   104857600 cpu:              91.6 elap:               3.9
 (Enter /sw/arch/RedHatEnterpriseServer7/EB_production/2020/software/Gaussian/g16.c01/l502.exe)
 Integral symmetry usage will be decided dynamically.
 Closed shell SCF:
 Using DIIS extrapolation, IDIIS=  1040.
 NGot=   104857600 LenX=   103378020 LenY=   102652968
 Requested convergence on RMS density matrix=1.00D-08 within 128 cycles.
 Requested convergence on MAX density matrix=1.00D-06.
 Requested convergence on             energy=1.00D-06.
 No special actions if energy rises.
 Fock matrices will be formed incrementally for  20 cycles.

 Cycle   1  Pass 1  IDiag  1:
 FoFJK:  IHMeth= 1 ICntrl=     500 DoSepK=F KAlg= 0 I1Cent=           0 FoldK=F
 IRaf= 870000000 NMat=       1 IRICut=       1 DoRegI=T DoRafI=F ISym2E= 0 IDoP0=0 IntGTp=1.
 FoFCou: FMM=T IPFlag=           0 FMFlag=      100000 FMFlg1=        2001
         NFxFlg=           0 DoJE=T BraDBF=F KetDBF=F FulRan=T
         wScrn=  0.000000 ICntrl=       500 IOpCl=  0 I1Cent=           0 NGrid=           0
         NMat0=    1 NMatS0=      1 NMatT0=    0 NMatD0=    1 NMtDS0=    0 NMtDT0=    0
 Symmetry not used in FoFCou.
 FMM levels:  10  Number of levels for PrismC:   9
 CoulSu:  requested number of processors reduced to:  13 ShMem   1 Linda.
 Inv3:  Mode=1 IEnd=    63149232.
 Iteration    1 A*A^-1 deviation from unit magnitude is 3.33D-15 for   3399.
 Iteration    1 A*A^-1 deviation from orthogonality  is 2.33D-15 for   3548   1512.
 Iteration    1 A^-1*A deviation from unit magnitude is 3.55D-15 for   3937.
 Iteration    1 A^-1*A deviation from orthogonality  is 2.11D-15 for   4304   2222.
 CoulSu:  requested number of processors reduced to:  13 ShMem   1 Linda.
 CoulSu:  requested number of processors reduced to:  13 ShMem   1 Linda.
 E= -3574.55181953584    
 DIIS: error= 2.29D-02 at cycle   1 NSaved=   1.
 NSaved= 1 IEnMin= 1 EnMin= -3574.55181953584     IErMin= 1 ErrMin= 2.29D-02
 ErrMax= 2.29D-02  0.00D+00 EMaxC= 1.00D-01 BMatC= 9.43D-01 BMatP= 9.43D-01
 IDIUse=3 WtCom= 7.71D-01 WtEn= 2.29D-01
 Coeff-Com:  0.100D+01
 Coeff-En:   0.100D+01
 Coeff:      0.100D+01
 Gap=     0.197 Goal=   None    Shift=    0.000
 GapD=    0.197 DampG=1.000 DampE=0.500 DampFc=0.5000 IDamp=-1.
 Damping current iteration by 5.00D-01
 RMSDP=3.12D-03 MaxDP=2.86D-01              OVMax= 2.20D-01

 Cycle   2  Pass 1  IDiag  1:
 RMSU=  1.55D-03    CP:  9.78D-01
 E= -3574.77929824214     Delta-E=       -0.227478706301 Rises=F Damp=T
 DIIS: error= 1.14D-02 at cycle   2 NSaved=   2.
 NSaved= 2 IEnMin= 2 EnMin= -3574.77929824214     IErMin= 2 ErrMin= 1.14D-02
 ErrMax= 1.14D-02  0.00D+00 EMaxC= 1.00D-01 BMatC= 1.33D-01 BMatP= 9.43D-01
 IDIUse=3 WtCom= 8.86D-01 WtEn= 1.14D-01
 Coeff-Com:  0.213D+00 0.787D+00
 Coeff-En:   0.372D+00 0.628D+00
 Coeff:      0.232D+00 0.768D+00
 Gap=     0.294 Goal=   None    Shift=    0.000
 RMSDP=1.06D-03 MaxDP=8.64D-02 DE=-2.27D-01 OVMax= 1.44D-01

 Cycle   3  Pass 1  IDiag  1:
 RMSU=  8.78D-04    CP:  9.86D-01  6.18D-01
 E= -3575.42342343421     Delta-E=       -0.644125192072 Rises=F Damp=F
 DIIS: error= 8.61D-03 at cycle   3 NSaved=   3.
 NSaved= 3 IEnMin= 3 EnMin= -3575.42342343421     IErMin= 3 ErrMin= 8.61D-03
 ErrMax= 8.61D-03  0.00D+00 EMaxC= 1.00D-01 BMatC= 4.58D-02 BMatP= 1.33D-01
 IDIUse=3 WtCom= 9.14D-01 WtEn= 8.61D-02
 Coeff-Com:  0.577D-01 0.365D+00 0.577D+00
 Coeff-En:   0.000D+00 0.000D+00 0.100D+01
 Coeff:      0.528D-01 0.334D+00 0.613D+00
 Gap=     0.196 Goal=   None    Shift=    0.000
 RMSDP=5.39D-04 MaxDP=5.36D-02 DE=-6.44D-01 OVMax= 4.30D-02

 Cycle   4  Pass 1  IDiag  1:
 RMSU=  3.79D-04    CP:  9.89D-01  7.13D-01  5.99D-01
 E= -3575.44167453869     Delta-E=       -0.018251104482 Rises=F Damp=F
 DIIS: error= 6.58D-03 at cycle   4 NSaved=   4.
 NSaved= 4 IEnMin= 4 EnMin= -3575.44167453869     IErMin= 4 ErrMin= 6.58D-03
 ErrMax= 6.58D-03  0.00D+00 EMaxC= 1.00D-01 BMatC= 2.26D-02 BMatP= 4.58D-02
 IDIUse=3 WtCom= 9.34D-01 WtEn= 6.58D-02
 Coeff-Com:  0.126D-01 0.128D+00 0.416D+00 0.443D+00
 Coeff-En:   0.000D+00 0.000D+00 0.370D+00 0.630D+00
 Coeff:      0.118D-01 0.120D+00 0.413D+00 0.455D+00
 Gap=     0.199 Goal=   None    Shift=    0.000
 RMSDP=2.75D-04 MaxDP=4.20D-02 DE=-1.83D-02 OVMax= 2.05D-02

 Cycle   5  Pass 1  IDiag  1:
 RMSU=  1.44D-04    CP:  9.85D-01  6.75D-01  6.70D-01  4.33D-01
 E= -3575.46129478724     Delta-E=       -0.019620248546 Rises=F Damp=F
 DIIS: error= 9.13D-04 at cycle   5 NSaved=   5.
 NSaved= 5 IEnMin= 5 EnMin= -3575.46129478724     IErMin= 5 ErrMin= 9.13D-04
 ErrMax= 9.13D-04  0.00D+00 EMaxC= 1.00D-01 BMatC= 7.04D-04 BMatP= 2.26D-02
 IDIUse=3 WtCom= 9.91D-01 WtEn= 9.13D-03
 Coeff-Com:  0.585D-03 0.182D-01 0.128D+00 0.218D+00 0.635D+00
 Coeff-En:   0.000D+00 0.000D+00 0.000D+00 0.000D+00 0.100D+01
 Coeff:      0.579D-03 0.180D-01 0.127D+00 0.216D+00 0.639D+00
 Gap=     0.193 Goal=   None    Shift=    0.000
 RMSDP=6.57D-05 MaxDP=8.04D-03 DE=-1.96D-02 OVMax= 3.61D-03

 Cycle   6  Pass 1  IDiag  1:
 RMSU=  2.64D-05    CP:  9.86D-01  6.78D-01  7.06D-01  4.89D-01  6.83D-01
 E= -3575.46185734412     Delta-E=       -0.000562556885 Rises=F Damp=F
 DIIS: error= 3.10D-04 at cycle   6 NSaved=   6.
 NSaved= 6 IEnMin= 6 EnMin= -3575.46185734412     IErMin= 6 ErrMin= 3.10D-04
 ErrMax= 3.10D-04  0.00D+00 EMaxC= 1.00D-01 BMatC= 7.36D-05 BMatP= 7.04D-04
 IDIUse=3 WtCom= 9.97D-01 WtEn= 3.10D-03
 Coeff-Com: -0.419D-03 0.491D-02 0.605D-01 0.113D+00 0.376D+00 0.446D+00
 Coeff-En:   0.000D+00 0.000D+00 0.000D+00 0.000D+00 0.000D+00 0.100D+01
 Coeff:     -0.417D-03 0.490D-02 0.603D-01 0.113D+00 0.375D+00 0.448D+00
 Gap=     0.194 Goal=   None    Shift=    0.000
 RMSDP=1.28D-05 MaxDP=9.36D-04 DE=-5.63D-04 OVMax= 7.36D-04

 Cycle   7  Pass 1  IDiag  1:
 RMSU=  6.88D-06    CP:  9.86D-01  6.79D-01  6.98D-01  4.99D-01  7.09D-01
                    CP:  7.51D-01
 E= -3575.46192151112     Delta-E=       -0.000064166993 Rises=F Damp=F
 DIIS: error= 2.50D-05 at cycle   7 NSaved=   7.
 NSaved= 7 IEnMin= 7 EnMin= -3575.46192151112     IErMin= 7 ErrMin= 2.50D-05
 ErrMax= 2.50D-05  0.00D+00 EMaxC= 1.00D-01 BMatC= 1.50D-06 BMatP= 7.36D-05
 IDIUse=1 WtCom= 1.00D+00 WtEn= 0.00D+00
 Coeff-Com: -0.966D-04 0.777D-03 0.150D-01 0.290D-01 0.101D+00 0.174D+00
 Coeff-Com:  0.680D+00
 Coeff:     -0.966D-04 0.777D-03 0.150D-01 0.290D-01 0.101D+00 0.174D+00
 Coeff:      0.680D+00
 Gap=     0.194 Goal=   None    Shift=    0.000
 RMSDP=3.49D-06 MaxDP=3.36D-04 DE=-6.42D-05 OVMax= 2.17D-04

 Cycle   8  Pass 1  IDiag  1:
 RMSU=  2.34D-06    CP:  9.86D-01  6.78D-01  6.97D-01  4.98D-01  7.20D-01
                    CP:  7.28D-01  8.20D-01
 E= -3575.46192282159     Delta-E=       -0.000001310470 Rises=F Damp=F
 DIIS: error= 2.96D-05 at cycle   8 NSaved=   8.
 NSaved= 8 IEnMin= 8 EnMin= -3575.46192282159     IErMin= 7 ErrMin= 2.50D-05
 ErrMax= 2.96D-05  0.00D+00 EMaxC= 1.00D-01 BMatC= 2.78D-07 BMatP= 1.50D-06
 IDIUse=1 WtCom= 1.00D+00 WtEn= 0.00D+00
 Coeff-Com:  0.304D-04 0.393D-04 0.328D-02 0.683D-02 0.268D-01 0.585D-01
 Coeff-Com:  0.355D+00 0.549D+00
 Coeff:      0.304D-04 0.393D-04 0.328D-02 0.683D-02 0.268D-01 0.585D-01
 Coeff:      0.355D+00 0.549D+00
 Gap=     0.194 Goal=   None    Shift=    0.000
 RMSDP=1.35D-06 MaxDP=1.31D-04 DE=-1.31D-06 OVMax= 1.23D-04

 Cycle   9  Pass 1  IDiag  1:
 RMSU=  5.41D-07    CP:  9.86D-01  6.78D-01  6.98D-01  4.98D-01  7.16D-01
                    CP:  7.42D-01  8.55D-01  7.35D-01
 E= -3575.46192302434     Delta-E=       -0.000000202758 Rises=F Damp=F
 DIIS: error= 8.01D-06 at cycle   9 NSaved=   9.
 NSaved= 9 IEnMin= 9 EnMin= -3575.46192302434     IErMin= 9 ErrMin= 8.01D-06
 ErrMax= 8.01D-06  0.00D+00 EMaxC= 1.00D-01 BMatC= 2.03D-08 BMatP= 2.78D-07
 IDIUse=1 WtCom= 1.00D+00 WtEn= 0.00D+00
 Coeff-Com:  0.192D-04-0.454D-04 0.377D-03 0.805D-03 0.391D-02 0.128D-01
 Coeff-Com:  0.121D+00 0.273D+00 0.588D+00
 Coeff:      0.192D-04-0.454D-04 0.377D-03 0.805D-03 0.391D-02 0.128D-01
 Coeff:      0.121D+00 0.273D+00 0.588D+00
 Gap=     0.194 Goal=   None    Shift=    0.000
 RMSDP=2.91D-07 MaxDP=3.02D-05 DE=-2.03D-07 OVMax= 2.56D-05

 Cycle  10  Pass 1  IDiag  1:
 RMSU=  1.85D-07    CP:  9.86D-01  6.78D-01  6.98D-01  4.98D-01  7.16D-01
                    CP:  7.44D-01  8.59D-01  7.36D-01  7.41D-01
 E= -3575.46192305600     Delta-E=       -0.000000031656 Rises=F Damp=F
 DIIS: error= 6.61D-07 at cycle  10 NSaved=  10.
 NSaved=10 IEnMin=10 EnMin= -3575.46192305600     IErMin=10 ErrMin= 6.61D-07
 ErrMax= 6.61D-07  0.00D+00 EMaxC= 1.00D-01 BMatC= 1.36D-09 BMatP= 2.03D-08
 IDIUse=1 WtCom= 1.00D+00 WtEn= 0.00D+00
 Coeff-Com:  0.674D-05-0.276D-04 0.165D-04 0.432D-04 0.609D-03 0.344D-02
 Coeff-Com:  0.429D-01 0.106D+00 0.307D+00 0.540D+00
 Coeff:      0.674D-05-0.276D-04 0.165D-04 0.432D-04 0.609D-03 0.344D-02
 Coeff:      0.429D-01 0.106D+00 0.307D+00 0.540D+00
 Gap=     0.194 Goal=   None    Shift=    0.000
 RMSDP=6.75D-08 MaxDP=3.07D-06 DE=-3.17D-08 OVMax= 3.50D-06

 Cycle  11  Pass 1  IDiag  1:
 RMSU=  4.02D-08    CP:  9.86D-01  6.78D-01  6.98D-01  4.98D-01  7.16D-01
                    CP:  7.44D-01  8.60D-01  7.42D-01  7.53D-01  8.04D-01
 E= -3575.46192305726     Delta-E=       -0.000000001264 Rises=F Damp=F
 DIIS: error= 5.08D-07 at cycle  11 NSaved=  11.
 NSaved=11 IEnMin=11 EnMin= -3575.46192305726     IErMin=11 ErrMin= 5.08D-07
 ErrMax= 5.08D-07  0.00D+00 EMaxC= 1.00D-01 BMatC= 7.47D-11 BMatP= 1.36D-09
 IDIUse=1 WtCom= 1.00D+00 WtEn= 0.00D+00
 Coeff-Com:  0.181D-05-0.756D-05-0.911D-05-0.134D-04 0.132D-03 0.783D-03
 Coeff-Com:  0.107D-01 0.278D-01 0.985D-01 0.255D+00 0.607D+00
 Coeff:      0.181D-05-0.756D-05-0.911D-05-0.134D-04 0.132D-03 0.783D-03
 Coeff:      0.107D-01 0.278D-01 0.985D-01 0.255D+00 0.607D+00
 Gap=     0.194 Goal=   None    Shift=    0.000
 RMSDP=1.97D-08 MaxDP=2.86D-06 DE=-1.26D-09 OVMax= 2.54D-06

 Cycle  12  Pass 1  IDiag  1:
 RMSU=  1.28D-08    CP:  9.86D-01  6.78D-01  6.98D-01  4.98D-01  7.16D-01
                    CP:  7.44D-01  8.60D-01  7.42D-01  7.66D-01  7.82D-01
                    CP:  8.18D-01
 E= -3575.46192305730     Delta-E=       -0.000000000039 Rises=F Damp=F
 DIIS: error= 1.02D-07 at cycle  12 NSaved=  12.
 NSaved=12 IEnMin=12 EnMin= -3575.46192305730     IErMin=12 ErrMin= 1.02D-07
 ErrMax= 1.02D-07  0.00D+00 EMaxC= 1.00D-01 BMatC= 4.89D-12 BMatP= 7.47D-11
 IDIUse=1 WtCom= 1.00D+00 WtEn= 0.00D+00
 Coeff-Com:  0.173D-07-0.111D-05-0.430D-05-0.835D-05 0.848D-05 0.583D-04
 Coeff-Com:  0.141D-02 0.432D-02 0.181D-01 0.664D-01 0.276D+00 0.634D+00
 Coeff:      0.173D-07-0.111D-05-0.430D-05-0.835D-05 0.848D-05 0.583D-04
 Coeff:      0.141D-02 0.432D-02 0.181D-01 0.664D-01 0.276D+00 0.634D+00
 Gap=     0.194 Goal=   None    Shift=    0.000
 RMSDP=6.49D-09 MaxDP=7.38D-07 DE=-3.87D-11 OVMax= 7.32D-07

[...]
 Alpha  occ. eigenvalues --   -0.30361  -0.30216  -0.29873  -0.29436  -0.28569
 Alpha  occ. eigenvalues --   -0.28374  -0.28249  -0.27979  -0.27911  -0.27871
 Alpha  occ. eigenvalues --   -0.27745  -0.27559  -0.27552  -0.27386  -0.27203
 Alpha  occ. eigenvalues --   -0.26984  -0.21173  -0.21144  -0.20859
 Alpha virt. eigenvalues --    0.00655   0.01391   0.01663   0.02369   0.02728
 Alpha virt. eigenvalues --    0.03149   0.03670   0.03847   0.04129   0.04215
 Alpha virt. eigenvalues --    0.04827   0.05373   0.05570   0.05741   0.06134
 Alpha virt. eigenvalues --    0.06680   0.07231   0.07445   0.07537   0.07770
 Alpha virt. eigenvalues --    0.07965   0.08050   0.08353   0.08851   0.09102
 Alpha virt. eigenvalues --    0.09170   0.09212   0.09791   0.09872   0.10067
 Alpha virt. eigenvalues --    0.10125   0.10451   0.10463   0.10841   0.10936
 Alpha virt. eigenvalues --    0.11137   0.11307   0.11734   0.11812   0.11967
 Alpha virt. eigenvalues --    0.12091   0.12641   0.12825   0.12897   0.13087
 Alpha virt. eigenvalues --    0.13239   0.13393   0.13734   0.14005   0.14504
 Alpha virt. eigenvalues --    0.14643   0.14737   0.15213   0.15439   0.15566
 Alpha virt. eigenvalues --    0.16083   0.16321   0.16744   0.17194   0.17456
 Alpha virt. eigenvalues --    0.17755   0.18016   0.18191   0.18429   0.18668
 Alpha virt. eigenvalues --    0.18956   0.19112   0.19326   0.19643   0.19746
 Alpha virt. eigenvalues --    0.19973   0.20377   0.20773   0.21018   0.21470
 Alpha virt. eigenvalues --    0.21536   0.21856   0.22224   0.22555   0.22810
 Alpha virt. eigenvalues --    0.23182   0.23389   0.23569   0.23885   0.24269
 Alpha virt. eigenvalues --    0.24605   0.24866   0.25097   0.25430   0.25713
 Alpha virt. eigenvalues --    0.25978   0.26125   0.26905   0.27040   0.27520
 Alpha virt. eigenvalues --    0.28189   0.28482   0.28681   0.28875   0.29564
 Alpha virt. eigenvalues --    0.30038   0.30339   0.31081   0.31327   0.31755
 Alpha virt. eigenvalues --    0.31859   0.32355   0.33004   0.33424   0.34123
 Alpha virt. eigenvalues --    0.34451   0.34924   0.36097   0.36463   0.36612
 Alpha virt. eigenvalues --    0.36884   0.37214   0.37410   0.37688   0.37975
 Alpha virt. eigenvalues --    0.38088   0.38333   0.38710   0.38917   0.39175
 Alpha virt. eigenvalues --    0.39460   0.39554   0.39771   0.39868   0.40026
 Alpha virt. eigenvalues --    0.40077   0.40436   0.40659   0.40985   0.41308
 Alpha virt. eigenvalues --    0.41521   0.41530   0.41683   0.41966   0.42344
 Alpha virt. eigenvalues --    0.42584   0.42667   0.43001   0.43136   0.43276
 Alpha virt. eigenvalues --    0.43483   0.43618   0.43723   0.43892   0.44004
 Alpha virt. eigenvalues --    0.44277   0.44371   0.44464   0.44762   0.45078
 Alpha virt. eigenvalues --    0.45332   0.45456   0.45604   0.45775   0.46149
 Alpha virt. eigenvalues --    0.46470   0.46583   0.46839   0.47035   0.47244
 Alpha virt. eigenvalues --    0.47744   0.47793   0.48022   0.48266   0.48510
 Alpha virt. eigenvalues --    0.48567   0.48976   0.49475   0.49974   0.50322
 Alpha virt. eigenvalues --    0.50543   0.50733   0.51014   0.51459   0.52027
 Alpha virt. eigenvalues --    0.52328   0.52525   0.53253   0.53446   0.54178
 Alpha virt. eigenvalues --    0.54189   0.54556   0.54830   0.55290   0.55670
 Alpha virt. eigenvalues --    0.55984   0.56408   0.56792   0.57347   0.57383
 Alpha virt. eigenvalues --    0.57637   0.58214   0.58650   0.59206   0.59398
 Alpha virt. eigenvalues --    0.60041   0.60700   0.61008   0.61227   0.62019
 Alpha virt. eigenvalues --    0.62817   0.63769   0.64028   0.64303   0.64764
 Alpha virt. eigenvalues --    0.65408   0.66029   0.66933   0.67011   0.67373
 Alpha virt. eigenvalues --    0.68688   0.68914   0.70194   0.70435   0.71054
 Alpha virt. eigenvalues --    0.71799   0.72820   0.73041   0.74061   0.74254
 Alpha virt. eigenvalues --    0.75083   0.75821   0.76893   0.77791   0.79723
 Alpha virt. eigenvalues --    0.80132   0.81200   0.82922   0.84942   0.88017
 Alpha virt. eigenvalues --    0.88853   0.91937   1.05640   1.06640   1.07287
 Alpha virt. eigenvalues --    1.08674   1.09596   1.10167   1.10484   1.11261
 Alpha virt. eigenvalues --    1.12009   1.13213   1.13761   1.15392   1.17479
 Alpha virt. eigenvalues --    1.17772   1.18117   1.19223   1.20379   1.20979
 Alpha virt. eigenvalues --    1.21121   1.21637   1.22279   1.22509   1.22743
 Alpha virt. eigenvalues --    1.22818   1.23093   1.23326   1.23875   1.24037
 Alpha virt. eigenvalues --    1.24346   1.24518   1.24856   1.25196   1.25414
 Alpha virt. eigenvalues --    1.25668   1.26051   1.26734   1.26872   1.26943
 Alpha virt. eigenvalues --    1.27299   1.28089   1.28238   1.28765   1.28807
 Alpha virt. eigenvalues --    1.29056   1.29311   1.29677   1.29887   1.30337
 Alpha virt. eigenvalues --    1.30569   1.31047   1.31207   1.31532   1.31994
 Alpha virt. eigenvalues --    1.32516   1.32758   1.33151   1.33816   1.34034
 Alpha virt. eigenvalues --    1.34176   1.34773   1.35345   1.35501   1.35810
 Alpha virt. eigenvalues --    1.35948   1.36445   1.36519   1.37136   1.37457
 Alpha virt. eigenvalues --    1.37862   1.37908   1.38516   1.38874   1.39263
 Alpha virt. eigenvalues --    1.39525   1.39759   1.40070   1.40683   1.40987
 Alpha virt. eigenvalues --    1.41063   1.42086   1.42775   1.43224   1.44014
 Alpha virt. eigenvalues --    1.44710   1.45253   1.45529   1.46393   1.46894
 Alpha virt. eigenvalues --    1.47172   1.47471   1.47724   1.48378   1.48705
 Alpha virt. eigenvalues --    1.48866   1.49657   1.50227   1.50827   1.51851
 Alpha virt. eigenvalues --    1.52348   1.52496   1.52857   1.53289   1.53822
 Alpha virt. eigenvalues --    1.53865   1.54556   1.54754   1.55535   1.56463
 Alpha virt. eigenvalues --    1.56728   1.57669   1.57932   1.58364   1.58623
 Alpha virt. eigenvalues --    1.59032   1.59905   1.59984   1.60421   1.61095
 Alpha virt. eigenvalues --    1.61184   1.61481   1.61850   1.62343   1.62632
 Alpha virt. eigenvalues --    1.63315   1.63703   1.63984   1.64210   1.64370
 Alpha virt. eigenvalues --    1.64778   1.65183   1.65344   1.65926   1.66032
 Alpha virt. eigenvalues --    1.66458   1.66705   1.67128   1.68154   1.68251
 Alpha virt. eigenvalues --    1.69157   1.69493   1.69680   1.69895   1.70358
 Alpha virt. eigenvalues --    1.70750   1.71356   1.71540   1.71868   1.72222
 Alpha virt. eigenvalues --    1.72634   1.72849   1.73095   1.73292   1.73418
 Alpha virt. eigenvalues --    1.73837   1.74235   1.74425   1.74544   1.74870
 Alpha virt. eigenvalues --    1.75202   1.75469   1.76016   1.76107   1.76284
 Alpha virt. eigenvalues --    1.76884   1.77018   1.77259   1.77526   1.77857
 Alpha virt. eigenvalues --    1.78371   1.78885   1.78963   1.79098   1.79394
 Alpha virt. eigenvalues --    1.79681   1.79947   1.80219   1.80717   1.80903
 Alpha virt. eigenvalues --    1.81408   1.81458   1.81989   1.82236   1.82628
 Alpha virt. eigenvalues --    1.82900   1.83435   1.83703   1.84217   1.84994
 Alpha virt. eigenvalues --    1.85176   1.85633   1.85982   1.86204   1.86502
 Alpha virt. eigenvalues --    1.87181   1.87624   1.89018   1.89160   1.89817
 Alpha virt. eigenvalues --    1.90334   1.90608   1.90945   1.91177   1.92039
 Alpha virt. eigenvalues --    1.92936   1.93740   1.94372   1.94612   1.94774
 Alpha virt. eigenvalues --    1.95420   1.96192   1.96496   1.96998   1.97291
 Alpha virt. eigenvalues --    1.97731   1.98457   1.99352   1.99679   2.00111
 Alpha virt. eigenvalues --    2.01162   2.01667   2.02032   2.02975   2.04154
 Alpha virt. eigenvalues --    2.05017   2.06365   2.08774   2.09354   2.09924
 Alpha virt. eigenvalues --    2.10808   2.11047   2.12523   2.13301   2.13960
 Alpha virt. eigenvalues --    2.14842   2.15271   2.15561   2.16230   2.17044
 Alpha virt. eigenvalues --    2.17174   2.17582   2.18639   2.19115   2.19587
 Alpha virt. eigenvalues --    2.20064   2.20698   2.21632   2.22193   2.23284
 Alpha virt. eigenvalues --    2.24056   2.24852   2.25548   2.25745   2.26089
 Alpha virt. eigenvalues --    2.26436   2.27400   2.27840   2.28386   2.28855
 Alpha virt. eigenvalues --    2.29494   2.30069   2.30905   2.31697   2.31957
 Alpha virt. eigenvalues --    2.32601   2.33535   2.34483   2.34717   2.35107
 Alpha virt. eigenvalues --    2.35713   2.36653   2.36990   2.38118   2.38713
 Alpha virt. eigenvalues --    2.39091   2.39389   2.39838   2.40866   2.41270
 Alpha virt. eigenvalues --    2.41392   2.41746   2.42406   2.43195   2.43732
 Alpha virt. eigenvalues --    2.44509   2.44664   2.45215   2.46251   2.46622
 Alpha virt. eigenvalues --    2.47131   2.47778   2.48412   2.49146   2.49463
 Alpha virt. eigenvalues --    2.49978   2.50528   2.51366   2.51661   2.51818
 Alpha virt. eigenvalues --    2.52057   2.52750   2.53206   2.53732   2.53911
 Alpha virt. eigenvalues --    2.54449   2.55311   2.55909   2.56067   2.56862
 Alpha virt. eigenvalues --    2.57134   2.57212   2.57666   2.58412   2.58637
 Alpha virt. eigenvalues --    2.59009   2.59198   2.59436   2.59693   2.59750
 Alpha virt. eigenvalues --    2.60373   2.60921   2.61137   2.61522   2.62157
 Alpha virt. eigenvalues --    2.62716   2.63597   2.63977   2.64433   2.65107
 Alpha virt. eigenvalues --    2.65600   2.66243   2.66635   2.66933   2.67261
 Alpha virt. eigenvalues --    2.67588   2.68171   2.68535   2.69247   2.70396
 Alpha virt. eigenvalues --    2.71054   2.71826   2.72285   2.72899   2.74200
 Alpha virt. eigenvalues --    2.74670   2.75025   2.76315   2.76839   2.76999
 Alpha virt. eigenvalues --    2.77775   2.78053   2.79000   2.79356   2.80200
 Alpha virt. eigenvalues --    2.80676   2.81285   2.82767   2.83788   2.84669
 Alpha virt. eigenvalues --    2.85490   2.86542   2.88013   2.88398   2.89220
 Alpha virt. eigenvalues --    2.89626   2.90340   2.90862   2.92580   2.93415
 Alpha virt. eigenvalues --    2.94441   2.96295   2.97620   2.97900   3.00185
 Alpha virt. eigenvalues --    3.01460   3.04652   3.06829   3.07984   3.09413
 Alpha virt. eigenvalues --    3.09536   3.10428   3.11080   3.11787   3.13722
 Alpha virt. eigenvalues --    3.14905   3.15665   3.17549   3.18595   3.19884
 Alpha virt. eigenvalues --    3.20828   3.22101   3.23556   3.24062   3.24355
 Alpha virt. eigenvalues --    3.24504   3.24996   3.25494   3.25768   3.26374
 Alpha virt. eigenvalues --    3.27176   3.27319   3.28077   3.28906   3.29643
 Alpha virt. eigenvalues --    3.29749   3.30625   3.31320   3.31975   3.32510
 Alpha virt. eigenvalues --    3.32996   3.33110   3.33556   3.34050   3.34313
 Alpha virt. eigenvalues --    3.34660   3.35165   3.35483   3.35866   3.36137
 Alpha virt. eigenvalues --    3.36256   3.36886   3.37155   3.38076   3.38279
 Alpha virt. eigenvalues --    3.38954   3.39469   3.39819   3.40396   3.40641
 Alpha virt. eigenvalues --    3.41048   3.41691   3.42015   3.42565   3.43373
 Alpha virt. eigenvalues --    3.44921   3.45067   3.46929   3.47369   3.49765
 Alpha virt. eigenvalues --    3.66384   3.67419   3.67936   7.17668  21.75908
 Alpha virt. eigenvalues --   21.76516  21.78096  21.80935  21.83432  21.83529
 Alpha virt. eigenvalues --   21.84407  21.84536  21.85744  21.86199  21.86904
 Alpha virt. eigenvalues --   21.88400  21.88847  21.89564  21.89812  21.92071
 Alpha virt. eigenvalues --   21.92307  21.93477  21.93756  21.96276  22.00746
 Alpha virt. eigenvalues --   22.01983  22.04805  22.05072  31.92270
          Condensed to atoms (all electrons):
 Mulliken charges:
               1
     1  C   -0.452764
     2  C   -0.272544
     3  C   -0.295967
     4  C   -0.274553
     5  C   -0.299784
     6  C   -0.286361
     7  N   -0.108229
     8  C   -0.277607
     9  C   -0.320103
    10  C   -0.271788
    11  C   -0.321309
    12  C   -0.266533
    13  C   -0.426184
    14  C   -0.252713
    15  C   -0.299138
    16  C   -0.318940
    17  C   -0.258287
    18  C   -0.273423
    19  C   -0.455392
    20  C   -0.344454
    21  C   -0.275722
    22  C   -0.313176
    23  C   -0.253505
    24  C   -0.269644
    25  C   -0.468618
    26  Br  -0.923827
    27  H    0.149983
    28  H    0.137072
    29  H    0.142916
    30  H    0.153273
    31  H    0.143485
    32  H    0.150884
    33  H    0.146411
    34  H    0.161598
    35  H    0.153187
    36  H    0.196536
    37  H    0.192975
    38  H    0.182302
    39  H    0.240782
    40  H    0.239160
    41  H    0.192977
    42  H    0.187685
    43  H    0.183669
    44  H    0.169520
    45  H    0.146507
    46  H    0.152106
    47  H    0.152232
    48  H    0.141580
    49  H    0.145789
    50  H    0.145637
    51  H    0.134412
    52  H    0.132942
    53  H    0.184485
    54  H    0.218626
    55  H    0.169537
    56  H    0.214569
    57  H    0.155698
    58  H    0.160884
    59  H    0.147376
    60  H    0.144618
    61  H    0.149312
    62  H    0.148612
    63  H    0.150645
    64  H    0.146240
    65  H    0.137972
    66  H    0.221732
    67  H    0.231533
    68  H    0.197120
    69  H    0.180965
    70  H    0.149174
    71  H    0.151568
    72  H    0.152746
    73  H    0.141720
    74  H    0.151661
    75  H    0.148509
    76  H    0.151397
    77  H    0.143795
    78  H    0.154453
 Sum of Mulliken charges =  -0.00000
 Mulliken charges with hydrogens summed into heavy atoms:
               1
     1  C   -0.022794
     2  C    0.024214
     3  C    0.001328
     4  C    0.040232
     5  C    0.089727
     6  C    0.136724
     7  N   -0.108229
     8  C    0.154531
     9  C    0.051251
    10  C    0.044239
    11  C   -0.016971
    12  C    0.020836
    13  C   -0.013193
    14  C    0.150398
    15  C    0.084967
    16  C   -0.002358
    17  C    0.033707
    18  C    0.024501
    19  C   -0.020534
    20  C    0.108811
    21  C    0.102363
    22  C   -0.012434
    23  C    0.040961
    24  C    0.030525
    25  C   -0.018973
    26  Br  -0.923827
 Electronic spatial extent (au):  <R**2>=          16134.2018
 Charge=              0.0000 electrons
 Dipole moment (field-independent basis, Debye):
    X=             11.9136    Y=              7.4960    Z=            -13.2826  Tot=             19.3533
 Quadrupole moment (field-independent basis, Debye-Ang):
   XX=           -209.1730   YY=           -188.6150   ZZ=           -217.9307
   XY=            -19.9737   XZ=             34.2714   YZ=             19.4048
 Traceless Quadrupole moment (field-independent basis, Debye-Ang):
   XX=             -3.9335   YY=             16.6246   ZZ=            -12.6911
   XY=            -19.9737   XZ=             34.2714   YZ=             19.4048
 Octapole moment (field-independent basis, Debye-Ang**2):
  XXX=             28.4236  YYY=             -2.3684  ZZZ=            -48.2470  XYY=             12.2157
  XXY=             40.6308  XXZ=            -85.1076  XZZ=             71.7143  YZZ=             48.3788
  YYZ=             -9.6698  XYZ=            -62.3973
 Hexadecapole moment (field-independent basis, Debye-Ang**3):
 XXXX=         -11085.8619 YYYY=          -7519.4352 ZZZZ=          -3756.7146 XXXY=            -29.7096
 XXXZ=             91.1602 YYYX=             -9.5654 YYYZ=            -58.2405 ZZZX=            122.1550
 ZZZY=             45.5657 XXYY=          -3074.7130 XXZZ=          -2592.4114 YYZZ=          -1934.3455
 XXYZ=            104.3030 YYXZ=             39.9230 ZZXY=           -118.7155
 N-N= 3.146184498781D+03 E-N=-1.475913091829D+04  KE= 3.565243746353D+03
 Unable to Open any file for archive entry.
 1\1\GINC-TCN1035\SP\RBP86\TZVP\C24H52Br1N1\ELENAA\21-Aug-2021\0\\# BP8
 6/TZVP SCRF=COSMORS geom=CHECKPOINT guess=CHECKPOINT\\COSMO-file for #
 SYZCZDCAEVUSPM-UHFFFAOYSA-M\\0,1\C,0,-0.9658154252,-2.604861544,-5.160
 1096789\C,0,-0.6775582296,-1.2427022406,-4.5190822839\C,0,-1.952350627
 6,-0.54614655,-4.0185183019\C,0,-1.748604338,0.9179156044,-3.590259765
 8\C,0,-0.7837367888,1.1306778069,-2.4056070311\C,0,-1.4249951372,0.663
 9648096,-1.1016297411\N,0,-0.4824930795,0.5644477524,0.1075069334\C,0,
 0.1446216094,1.9524358119,0.293365666\C,0,0.9169142339,2.2137392498,1.
 5794999021\C,0,1.5226544238,3.6340048847,1.5723124078\C,0,2.5184239159
 ,3.9162163482,0.4235404861\C,0,1.914604805,4.6751383435,-0.7703879843\
 C,0,2.9078994522,4.851088642,-1.9242314515\C,0,-1.3760037163,0.1913667
 843,1.3033399126\C,0,-0.7002865743,-0.4627833993,2.5062302692\C,0,-1.6
 949911527,-0.528520127,3.6772695884\C,0,-1.1332130343,-1.2637857354,4.
 9063467106\C,0,0.1646596705,-0.6694599354,5.4842073676\C,0,0.046180468
 4,0.8059596734,5.8881073648\C,0,0.6113476342,-0.4670367365,-0.13039035
 8\C,0,0.1124541177,-1.8553312488,-0.5170881781\C,0,1.2889324328,-2.840
 5132184,-0.5975391472\C,0,0.8765792772,-4.3098876639,-0.7900027327\C,0
 ,0.0462179484,-4.6141061843,-2.0570364917\C,0,-1.4751852874,-4.5114191
 859,-1.867241841\Br,0,-3.2200022857,3.5397088608,0.7815641178\H,0,-0.0
 396658958,-3.1108398296,-5.472386081\H,0,-1.4887859464,-3.2683396408,-
 4.4545723531\H,0,-1.6072321945,-2.4932096322,-6.0489338088\H,0,0.03479
 40381,-1.3767453054,-3.686495294\H,0,-0.1703764109,-0.5867375425,-5.24
 87068092\H,0,-2.7045208106,-0.5628150052,-4.8262462964\H,0,-2.39246128
 89,-1.1387943804,-3.1962553804\H,0,-1.355057877,1.4829276978,-4.451442
 2969\H,0,-2.7242835998,1.3714969824,-3.3452220304\H,0,-0.5351789933,2.
 199796417,-2.3402108456\H,0,0.1580113058,0.5959105527,-2.6027587954\H,
 0,-2.2169539882,1.3623017702,-0.7883321997\H,0,-1.8712225396,-0.330880
 299,-1.2138580918\H,0,0.8025820992,2.0824451351,-0.5733886352\H,0,-0.6
 959016441,2.6600178855,0.2179813093\H,0,0.2458846191,2.1331613079,2.44
 70689079\H,0,1.7295353978,1.4814042889,1.7116991398\H,0,2.0218523391,3
 .7722521194,2.54362189\H,0,0.7038587788,4.3741915044,1.5426762807\H,0,
 3.3663173249,4.5065340758,0.8093258656\H,0,2.9578689671,2.9643812077,0
 .0713172246\H,0,1.5656682392,5.6625237609,-0.4211096214\H,0,1.01307170
 79,4.1559975616,-1.137772529\H,0,2.4646301309,5.4165071177,-2.75806997
 84\H,0,3.2331450755,3.8734918526,-2.315473054\H,0,3.8084802588,5.39203
 59287,-1.591174792\H,0,-1.8821480994,1.1303536613,1.5765683789\H,0,-2.
 1419050608,-0.4870802736,0.904426205\H,0,-0.3655691356,-1.4830887759,2
 .260939636\H,0,0.1908226066,0.0948064011,2.8181460966\H,0,-2.616971653
 7,-1.0365766097,3.3466333918\H,0,-1.9933027774,0.4968274933,3.95410822
 89\H,0,-1.9074489878,-1.2642840604,5.6933390666\H,0,-0.9577777321,-2.3
 213447104,4.6422039411\H,0,0.9867339242,-0.7878291484,4.7573408127\H,0
 ,0.4571553493,-1.2670552153,6.3639114214\H,0,-0.1381184492,1.454608012
 2,5.0174348439\H,0,0.9682232742,1.161904569,6.3722101651\H,0,-0.786748
 0753,0.956609531,6.5940569613\H,0,1.2625894411,-0.0575367808,-0.913644
 0256\H,0,1.2026165349,-0.5098708306,0.7918588483\H,0,-0.6265402588,-2.
 2223011399,0.2123330991\H,0,-0.3925740766,-1.816619316,-1.4930429654\H
 ,0,1.8887255765,-2.7618096033,0.3259132217\H,0,1.9517861117,-2.5358205
 354,-1.4266360123\H,0,1.8020926379,-4.9084775597,-0.812657159\H,0,0.31
 71224354,-4.6486677002,0.1005770815\H,0,0.3688183231,-3.9467900196,-2.
 8757699817\H,0,0.2806469613,-5.6369522779,-2.3952275143\H,0,-2.0116062
 456,-4.8267653531,-2.7755215466\H,0,-1.8076934587,-5.1622394906,-1.042
 6295517\H,0,-1.8023785716,-3.4884706009,-1.6310911075\\Version=ES64L-G
 16RevC.01\State=1-A\HF=-3575.3832876\RMSD=8.377e-10\Dipole=5.1028323,-
 5.5217863,-1.2027154\Quadrupole=-8.1763398,-11.4684516,19.6447915,28.2
 10283,7.4933898,-7.6774958\PG=C01 [X(C24H52Br1N1)]\\@
 The archive entry for this job was punched.


 I FIND THAT THE THREE TRULY GREAT TIMES FOR THINKING THOUGHTS
 ARE WHEN I AM STANDING IN THE SHOWER, SITTING ON THE JOHN, OR WALKING.

                                    -- COLIN FLETCHER
 Job cpu time:       0 days  1 hours 17 minutes 17.1 seconds.
 Elapsed time:       0 days  0 hours  3 minutes 16.1 seconds.
 File lengths (MBytes):  RWF=    508 Int=      0 D2E=      0 Chk=     59 Scr=      1
 Normal termination of Gaussian 16 at Sat Aug 21 11:08:23 2021.
