 Entering Gaussian System, Link 0=g16
 Input=TUNFSRHWOTWDNC-UHFFFAOYSA-N.gjf
 Output=TUNFSRHWOTWDNC-UHFFFAOYSA-N.log
 Initial command:
 /sw/arch/RedHatEnterpriseServer7/EB_production/2019/software/Gaussian/g16.c01/l1.exe "/scratch-local/elenaa.9715276/Gau-20378.inp" -scrdir="/scratch-local/elenaa.9715276/"
 Entering Link 1 = /sw/arch/RedHatEnterpriseServer7/EB_production/2019/software/Gaussian/g16.c01/l1.exe PID=     20379.
  
 Copyright (c) 1988-2019, Gaussian, Inc.  All Rights Reserved.
  
 This is part of the Gaussian(R) 16 program.  It is based on
 the Gaussian(R) 09 system (copyright 2009, Gaussian, Inc.),
 the Gaussian(R) 03 system (copyright 2003, Gaussian, Inc.),
 the Gaussian(R) 98 system (copyright 1998, Gaussian, Inc.),
 the Gaussian(R) 94 system (copyright 1995, Gaussian, Inc.),
 the Gaussian 92(TM) system (copyright 1992, Gaussian, Inc.),
 the Gaussian 90(TM) system (copyright 1990, Gaussian, Inc.),
 the Gaussian 88(TM) system (copyright 1988, Gaussian, Inc.),
 the Gaussian 86(TM) system (copyright 1986, Carnegie Mellon
 University), and the Gaussian 82(TM) system (copyright 1983,
 Carnegie Mellon University). Gaussian is a federally registered
 trademark of Gaussian, Inc.
  
 This software contains proprietary and confidential information,
 including trade secrets, belonging to Gaussian, Inc.
  
 This software is provided under written license and may be
 used, copied, transmitted, or stored only in accord with that
 written license.
  
 The following legend is applicable only to US Government
 contracts under FAR:
  
                    RESTRICTED RIGHTS LEGEND
  
 Use, reproduction and disclosure by the US Government is
 subject to restrictions as set forth in subparagraphs (a)
 and (c) of the Commercial Computer Software - Restricted
 Rights clause in FAR 52.227-19.
  
 Gaussian, Inc.
 340 Quinnipiac St., Bldg. 40, Wallingford CT 06492
  
  
 ---------------------------------------------------------------
 Warning -- This program may not be used in any manner that
 competes with the business of Gaussian, Inc. or will provide
 assistance to any competitor of Gaussian, Inc.  The licensee
 of this program is prohibited from giving any competitor of
 Gaussian, Inc. access to this program.  By using this program,
 the user acknowledges that Gaussian, Inc. is engaged in the
 business of creating and licensing software in the field of
 computational chemistry and represents and warrants to the
 licensee that it is not a competitor of Gaussian, Inc. and that
 it will not use this program in any manner prohibited above.
 ---------------------------------------------------------------
  

 Cite this work as:
 Gaussian 16, Revision C.01,
 M. J. Frisch, G. W. Trucks, H. B. Schlegel, G. E. Scuseria, 
 M. A. Robb, J. R. Cheeseman, G. Scalmani, V. Barone, 
 G. A. Petersson, H. Nakatsuji, X. Li, M. Caricato, A. V. Marenich, 
 J. Bloino, B. G. Janesko, R. Gomperts, B. Mennucci, H. P. Hratchian, 
 J. V. Ortiz, A. F. Izmaylov, J. L. Sonnenberg, D. Williams-Young, 
 F. Ding, F. Lipparini, F. Egidi, J. Goings, B. Peng, A. Petrone, 
 T. Henderson, D. Ranasinghe, V. G. Zakrzewski, J. Gao, N. Rega, 
 G. Zheng, W. Liang, M. Hada, M. Ehara, K. Toyota, R. Fukuda, 
 J. Hasegawa, M. Ishida, T. Nakajima, Y. Honda, O. Kitao, H. Nakai, 
 T. Vreven, K. Throssell, J. A. Montgomery, Jr., J. E. Peralta, 
 F. Ogliaro, M. J. Bearpark, J. J. Heyd, E. N. Brothers, K. N. Kudin, 
 V. N. Staroverov, T. A. Keith, R. Kobayashi, J. Normand, 
 K. Raghavachari, A. P. Rendell, J. C. Burant, S. S. Iyengar, 
 J. Tomasi, M. Cossi, J. M. Millam, M. Klene, C. Adamo, R. Cammi, 
 J. W. Ochterski, R. L. Martin, K. Morokuma, O. Farkas, 
 J. B. Foresman, and D. J. Fox, Gaussian, Inc., Wallingford CT, 2019.
 
 ******************************************
 Gaussian 16:  ES64L-G16RevC.01  3-Jul-2019
                22-Feb-2021 
 ******************************************
 %chk=TUNFSRHWOTWDNC-UHFFFAOYSA-N.chk
 %NProcShared=32
 Will use up to   32 processors via shared memory.
 -------------------------------------------------------------
 #P BP86/TZVP EmpiricalDispersion=GD3 SCRF=(Solvent=Water) Opt
 -------------------------------------------------------------
 1/18=20,19=15,26=3,38=1/1,3;
 2/9=110,12=2,17=6,18=5,40=1/2;
 3/5=19,7=101,11=2,25=1,30=1,70=2201,71=1,72=1,74=404,124=31/1,2,3;
 4//1;
 5/5=2,38=5,53=1/2;
 6/7=2,8=2,9=2,10=2,28=1/1;
 7//1,2,3,16;
 1/18=20,19=15,26=3/3(2);
 2/9=110/2;
 99//99;
 2/9=110/2;
 3/5=19,7=101,11=2,25=1,30=1,70=2205,71=1,72=1,74=404,124=31/1,2,3;
 4/5=5,16=3,69=1/1;
 5/5=2,38=5,53=1/2;
 7//1,2,3,16;
 1/18=20,19=15,26=3/3(-5);
 2/9=110/2;
 6/7=2,8=2,9=2,10=2,19=2,28=1/1;
 99/9=1/99;
 Leave Link    1 at Mon Feb 22 21:19:37 2021, MaxMem=           0 cpu:               1.2 elap:               0.1
 (Enter /sw/arch/RedHatEnterpriseServer7/EB_production/2019/software/Gaussian/g16.c01/l101.exe)
 -------------------------------------
 Particle #TUNFSRHWOTWDNC-UHFFFAOYSA-N
 -------------------------------------
 Symbolic Z-matrix:
 Charge =  0 Multiplicity = 1
 C                     2.54179   7.6151    9.92804 
 C                     2.81321   6.60263   8.79273 
 C                     1.92775   6.85461   7.54328 
 C                     2.2       5.83753   6.40226 
 C                     1.3142    6.09016   5.15371 
 C                     1.58627   5.07304   4.01282 
 C                     0.69292   5.33925   2.77199 
 C                     0.94041   4.34042   1.61167 
 C                     0.03593   4.63104   0.38011 
 C                     0.29122   3.63312  -0.78075 
 C                    -0.5844    3.89149  -2.03794 
 C                    -0.30167   2.85506  -3.16174 
 C                    -1.14577   3.09291  -4.44227 
 C                    -0.94312   2.01671  -5.43306 
 O                    -0.3834    2.23802  -6.53057 
 O                    -1.36982   0.75814  -5.16893 
 H                     1.50219   7.55278   10.25451 
 H                     2.74753   8.63216   9.58965 
 H                     3.18789   7.39477   10.78057 
 H                     3.86775   6.66915   8.51131 
 H                     2.62779   5.59444   9.17331 
 H                     0.87491   6.79086   7.83426 
 H                     2.1159    7.8664    7.17168 
 H                     2.01084   4.82647   6.77361 
 H                     3.25202   5.90238   6.11074 
 H                     1.50256   7.10141   4.78214 
 H                     0.26187   6.02634   5.44469 
 H                     1.3965    4.06075   4.38098 
 H                     2.63773   5.13647   3.71829 
 H                     0.88408   6.35356   2.40964 
 H                    -0.35721   5.27649   3.07175 
 H                     0.74676   3.32337   1.96672 
 H                     1.99005   4.39843   1.30712 
 H                    -1.01363   4.56842   0.68375 
 H                     0.22782   5.64874   0.02711 
 H                     0.09687   2.61894  -0.41787 
 H                     1.34455   3.69532  -1.07006 
 H                    -0.38403   4.89657  -2.41943 
 H                    -1.64081   3.83607  -1.75818 
 H                    -0.51161   1.85661  -2.76796 
 H                     0.75914   2.89701  -3.42851 
 H                    -0.87656   4.05873  -4.8825 
 H                    -2.20939   3.12272  -4.18957 
 H                    -1.23994   0.04129  -5.82684 
 
 ITRead=  0  0  0  0  0  0  0  0  0  0  0  0  0  0  0  0  0  0  0  0
 ITRead=  0  0  0  0  0  0  0  0  0  0  0  0  0  0  0  0  0  0  0  0
 ITRead=  0  0  0  0
 MicOpt= -1 -1 -1 -1 -1 -1 -1 -1 -1 -1 -1 -1 -1 -1 -1 -1 -1 -1 -1 -1
 MicOpt= -1 -1 -1 -1 -1 -1 -1 -1 -1 -1 -1 -1 -1 -1 -1 -1 -1 -1 -1 -1
 MicOpt= -1 -1 -1 -1
 NAtoms=     44 NQM=       44 NQMF=       0 NMMI=      0 NMMIF=      0
                NMic=       0 NMicF=      0.
                    Isotopes and Nuclear Properties:
 (Nuclear quadrupole moments (NQMom) in fm**2, nuclear magnetic moments (NMagM)
  in nuclear magnetons)

  Atom         1           2           3           4           5           6           7           8           9          10
 IAtWgt=          12          12          12          12          12          12          12          12          12          12
 AtmWgt=  12.0000000  12.0000000  12.0000000  12.0000000  12.0000000  12.0000000  12.0000000  12.0000000  12.0000000  12.0000000
 NucSpn=           0           0           0           0           0           0           0           0           0           0
 AtZEff=  -0.0000000  -0.0000000  -0.0000000  -0.0000000  -0.0000000  -0.0000000  -0.0000000  -0.0000000  -0.0000000  -0.0000000
 NQMom=    0.0000000   0.0000000   0.0000000   0.0000000   0.0000000   0.0000000   0.0000000   0.0000000   0.0000000   0.0000000
 NMagM=    0.0000000   0.0000000   0.0000000   0.0000000   0.0000000   0.0000000   0.0000000   0.0000000   0.0000000   0.0000000
 AtZNuc=   6.0000000   6.0000000   6.0000000   6.0000000   6.0000000   6.0000000   6.0000000   6.0000000   6.0000000   6.0000000

  Atom        11          12          13          14          15          16          17          18          19          20
 IAtWgt=          12          12          12          12          16          16           1           1           1           1
 AtmWgt=  12.0000000  12.0000000  12.0000000  12.0000000  15.9949146  15.9949146   1.0078250   1.0078250   1.0078250   1.0078250
 NucSpn=           0           0           0           0           0           0           1           1           1           1
 AtZEff=  -0.0000000  -0.0000000  -0.0000000  -0.0000000  -0.0000000  -0.0000000  -0.0000000  -0.0000000  -0.0000000  -0.0000000
 NQMom=    0.0000000   0.0000000   0.0000000   0.0000000   0.0000000   0.0000000   0.0000000   0.0000000   0.0000000   0.0000000
 NMagM=    0.0000000   0.0000000   0.0000000   0.0000000   0.0000000   0.0000000   2.7928460   2.7928460   2.7928460   2.7928460
 AtZNuc=   6.0000000   6.0000000   6.0000000   6.0000000   8.0000000   8.0000000   1.0000000   1.0000000   1.0000000   1.0000000

  Atom        21          22          23          24          25          26          27          28          29          30
 IAtWgt=           1           1           1           1           1           1           1           1           1           1
 AtmWgt=   1.0078250   1.0078250   1.0078250   1.0078250   1.0078250   1.0078250   1.0078250   1.0078250   1.0078250   1.0078250
 NucSpn=           1           1           1           1           1           1           1           1           1           1
 AtZEff=  -0.0000000  -0.0000000  -0.0000000  -0.0000000  -0.0000000  -0.0000000  -0.0000000  -0.0000000  -0.0000000  -0.0000000
 NQMom=    0.0000000   0.0000000   0.0000000   0.0000000   0.0000000   0.0000000   0.0000000   0.0000000   0.0000000   0.0000000
 NMagM=    2.7928460   2.7928460   2.7928460   2.7928460   2.7928460   2.7928460   2.7928460   2.7928460   2.7928460   2.7928460
 AtZNuc=   1.0000000   1.0000000   1.0000000   1.0000000   1.0000000   1.0000000   1.0000000   1.0000000   1.0000000   1.0000000

  Atom        31          32          33          34          35          36          37          38          39          40
 IAtWgt=           1           1           1           1           1           1           1           1           1           1
 AtmWgt=   1.0078250   1.0078250   1.0078250   1.0078250   1.0078250   1.0078250   1.0078250   1.0078250   1.0078250   1.0078250
 NucSpn=           1           1           1           1           1           1           1           1           1           1
 AtZEff=  -0.0000000  -0.0000000  -0.0000000  -0.0000000  -0.0000000  -0.0000000  -0.0000000  -0.0000000  -0.0000000  -0.0000000
 NQMom=    0.0000000   0.0000000   0.0000000   0.0000000   0.0000000   0.0000000   0.0000000   0.0000000   0.0000000   0.0000000
 NMagM=    2.7928460   2.7928460   2.7928460   2.7928460   2.7928460   2.7928460   2.7928460   2.7928460   2.7928460   2.7928460
 AtZNuc=   1.0000000   1.0000000   1.0000000   1.0000000   1.0000000   1.0000000   1.0000000   1.0000000   1.0000000   1.0000000

  Atom        41          42          43          44
 IAtWgt=           1           1           1           1
 AtmWgt=   1.0078250   1.0078250   1.0078250   1.0078250
 NucSpn=           1           1           1           1
 AtZEff=  -0.0000000  -0.0000000  -0.0000000  -0.0000000
 NQMom=    0.0000000   0.0000000   0.0000000   0.0000000
 NMagM=    2.7928460   2.7928460   2.7928460   2.7928460
 AtZNuc=   1.0000000   1.0000000   1.0000000   1.0000000
 Leave Link  101 at Mon Feb 22 21:19:38 2021, MaxMem=   104857600 cpu:               3.3 elap:               0.1
 (Enter /sw/arch/RedHatEnterpriseServer7/EB_production/2019/software/Gaussian/g16.c01/l103.exe)

 GradGradGradGradGradGradGradGradGradGradGradGradGradGradGradGradGradGrad
 Berny optimization.
 Initialization pass.
                           ----------------------------
                           !    Initial Parameters    !
                           ! (Angstroms and Degrees)  !
 --------------------------                            --------------------------
 ! Name  Definition              Value          Derivative Info.                !
 --------------------------------------------------------------------------------
 ! R1    R(1,2)                  1.5452         estimate D2E/DX2                !
 ! R2    R(1,17)                 1.0914         estimate D2E/DX2                !
 ! R3    R(1,18)                 1.0914         estimate D2E/DX2                !
 ! R4    R(1,19)                 1.0922         estimate D2E/DX2                !
 ! R5    R(2,3)                  1.552          estimate D2E/DX2                !
 ! R6    R(2,20)                 1.0935         estimate D2E/DX2                !
 ! R7    R(2,21)                 1.0935         estimate D2E/DX2                !
 ! R8    R(3,4)                  1.5526         estimate D2E/DX2                !
 ! R9    R(3,22)                 1.0942         estimate D2E/DX2                !
 ! R10   R(3,23)                 1.0942         estimate D2E/DX2                !
 ! R11   R(4,5)                  1.5516         estimate D2E/DX2                !
 ! R12   R(4,24)                 1.0936         estimate D2E/DX2                !
 ! R13   R(4,25)                 1.0936         estimate D2E/DX2                !
 ! R14   R(5,6)                  1.5525         estimate D2E/DX2                !
 ! R15   R(5,26)                 1.0937         estimate D2E/DX2                !
 ! R16   R(5,27)                 1.0937         estimate D2E/DX2                !
 ! R17   R(6,7)                  1.552          estimate D2E/DX2                !
 ! R18   R(6,28)                 1.0937         estimate D2E/DX2                !
 ! R19   R(6,29)                 1.0938         estimate D2E/DX2                !
 ! R20   R(7,8)                  1.5509         estimate D2E/DX2                !
 ! R21   R(7,30)                 1.0939         estimate D2E/DX2                !
 ! R22   R(7,31)                 1.0939         estimate D2E/DX2                !
 ! R23   R(8,9)                  1.5554         estimate D2E/DX2                !
 ! R24   R(8,32)                 1.0945         estimate D2E/DX2                !
 ! R25   R(8,33)                 1.0945         estimate D2E/DX2                !
 ! R26   R(9,10)                 1.552          estimate D2E/DX2                !
 ! R27   R(9,34)                 1.0944         estimate D2E/DX2                !
 ! R28   R(9,35)                 1.0941         estimate D2E/DX2                !
 ! R29   R(10,11)                1.5537         estimate D2E/DX2                !
 ! R30   R(10,36)                1.0945         estimate D2E/DX2                !
 ! R31   R(10,37)                1.0941         estimate D2E/DX2                !
 ! R32   R(11,12)                1.5547         estimate D2E/DX2                !
 ! R33   R(11,38)                1.0936         estimate D2E/DX2                !
 ! R34   R(11,39)                1.0942         estimate D2E/DX2                !
 ! R35   R(12,13)                1.552          estimate D2E/DX2                !
 ! R36   R(12,40)                1.0936         estimate D2E/DX2                !
 ! R37   R(12,41)                1.0946         estimate D2E/DX2                !
 ! R38   R(13,14)                1.4768         estimate D2E/DX2                !
 ! R39   R(13,42)                1.095          estimate D2E/DX2                !
 ! R40   R(13,43)                1.0936         estimate D2E/DX2                !
 ! R41   R(14,15)                1.2517         estimate D2E/DX2                !
 ! R42   R(14,16)                1.3549         estimate D2E/DX2                !
 ! R43   R(16,44)                0.9816         estimate D2E/DX2                !
 ! A1    A(2,1,17)             110.467          estimate D2E/DX2                !
 ! A2    A(2,1,18)             110.4671         estimate D2E/DX2                !
 ! A3    A(2,1,19)             109.7201         estimate D2E/DX2                !
 ! A4    A(17,1,18)            108.9956         estimate D2E/DX2                !
 ! A5    A(17,1,19)            108.5708         estimate D2E/DX2                !
 ! A6    A(18,1,19)            108.5717         estimate D2E/DX2                !
 ! A7    A(1,2,3)              112.6378         estimate D2E/DX2                !
 ! A8    A(1,2,20)             108.5801         estimate D2E/DX2                !
 ! A9    A(1,2,21)             108.5797         estimate D2E/DX2                !
 ! A10   A(3,2,20)             109.46           estimate D2E/DX2                !
 ! A11   A(3,2,21)             109.4603         estimate D2E/DX2                !
 ! A12   A(20,2,21)            108.0109         estimate D2E/DX2                !
 ! A13   A(2,3,4)              112.6594         estimate D2E/DX2                !
 ! A14   A(2,3,22)             108.9915         estimate D2E/DX2                !
 ! A15   A(2,3,23)             108.9925         estimate D2E/DX2                !
 ! A16   A(4,3,22)             109.0264         estimate D2E/DX2                !
 ! A17   A(4,3,23)             109.0276         estimate D2E/DX2                !
 ! A18   A(22,3,23)            108.0385         estimate D2E/DX2                !
 ! A19   A(3,4,5)              112.6201         estimate D2E/DX2                !
 ! A20   A(3,4,24)             109.0121         estimate D2E/DX2                !
 ! A21   A(3,4,25)             109.011          estimate D2E/DX2                !
 ! A22   A(5,4,24)             108.968          estimate D2E/DX2                !
 ! A23   A(5,4,25)             108.968          estimate D2E/DX2                !
 ! A24   A(24,4,25)            108.1643         estimate D2E/DX2                !
 ! A25   A(4,5,6)              112.6213         estimate D2E/DX2                !
 ! A26   A(4,5,26)             109.0028         estimate D2E/DX2                !
 ! A27   A(4,5,27)             109.0095         estimate D2E/DX2                !
 ! A28   A(6,5,26)             109.0214         estimate D2E/DX2                !
 ! A29   A(6,5,27)             109.0208         estimate D2E/DX2                !
 ! A30   A(26,5,27)            108.0626         estimate D2E/DX2                !
 ! A31   A(5,6,7)              111.9809         estimate D2E/DX2                !
 ! A32   A(5,6,28)             109.1835         estimate D2E/DX2                !
 ! A33   A(5,6,29)             109.1695         estimate D2E/DX2                !
 ! A34   A(7,6,28)             109.1477         estimate D2E/DX2                !
 ! A35   A(7,6,29)             109.1544         estimate D2E/DX2                !
 ! A36   A(28,6,29)            108.1259         estimate D2E/DX2                !
 ! A37   A(6,7,8)              113.3186         estimate D2E/DX2                !
 ! A38   A(6,7,30)             108.8621         estimate D2E/DX2                !
 ! A39   A(6,7,31)             108.8848         estimate D2E/DX2                !
 ! A40   A(8,7,30)             108.7512         estimate D2E/DX2                !
 ! A41   A(8,7,31)             108.7397         estimate D2E/DX2                !
 ! A42   A(30,7,31)            108.1634         estimate D2E/DX2                !
 ! A43   A(7,8,9)              112.2879         estimate D2E/DX2                !
 ! A44   A(7,8,32)             109.1186         estimate D2E/DX2                !
 ! A45   A(7,8,33)             109.0925         estimate D2E/DX2                !
 ! A46   A(9,8,32)             109.1225         estimate D2E/DX2                !
 ! A47   A(9,8,33)             109.1147         estimate D2E/DX2                !
 ! A48   A(32,8,33)            108.011          estimate D2E/DX2                !
 ! A49   A(8,9,10)             112.1145         estimate D2E/DX2                !
 ! A50   A(8,9,34)             109.1057         estimate D2E/DX2                !
 ! A51   A(8,9,35)             109.1026         estimate D2E/DX2                !
 ! A52   A(10,9,34)            109.1774         estimate D2E/DX2                !
 ! A53   A(10,9,35)            109.1418         estimate D2E/DX2                !
 ! A54   A(34,9,35)            108.1153         estimate D2E/DX2                !
 ! A55   A(9,10,11)            113.9295         estimate D2E/DX2                !
 ! A56   A(9,10,36)            108.5782         estimate D2E/DX2                !
 ! A57   A(9,10,37)            108.6385         estimate D2E/DX2                !
 ! A58   A(11,10,36)           108.8009         estimate D2E/DX2                !
 ! A59   A(11,10,37)           108.6115         estimate D2E/DX2                !
 ! A60   A(36,10,37)           108.1369         estimate D2E/DX2                !
 ! A61   A(10,11,12)           111.8112         estimate D2E/DX2                !
 ! A62   A(10,11,38)           109.3813         estimate D2E/DX2                !
 ! A63   A(10,11,39)           109.1955         estimate D2E/DX2                !
 ! A64   A(12,11,38)           109.1004         estimate D2E/DX2                !
 ! A65   A(12,11,39)           109.0635         estimate D2E/DX2                !
 ! A66   A(38,11,39)           108.2181         estimate D2E/DX2                !
 ! A67   A(11,12,13)           113.2862         estimate D2E/DX2                !
 ! A68   A(11,12,40)           108.2669         estimate D2E/DX2                !
 ! A69   A(11,12,41)           109.0776         estimate D2E/DX2                !
 ! A70   A(13,12,40)           109.4257         estimate D2E/DX2                !
 ! A71   A(13,12,41)           108.6696         estimate D2E/DX2                !
 ! A72   A(40,12,41)           107.9851         estimate D2E/DX2                !
 ! A73   A(12,13,14)           111.5447         estimate D2E/DX2                !
 ! A74   A(12,13,42)           109.4604         estimate D2E/DX2                !
 ! A75   A(12,13,43)           110.0276         estimate D2E/DX2                !
 ! A76   A(14,13,42)           109.8339         estimate D2E/DX2                !
 ! A77   A(14,13,43)           107.9594         estimate D2E/DX2                !
 ! A78   A(42,13,43)           107.9359         estimate D2E/DX2                !
 ! A79   A(13,14,15)           121.3837         estimate D2E/DX2                !
 ! A80   A(13,14,16)           120.1928         estimate D2E/DX2                !
 ! A81   A(15,14,16)           118.423          estimate D2E/DX2                !
 ! A82   A(14,16,44)           120.3985         estimate D2E/DX2                !
 ! D1    D(17,1,2,3)            60.3363         estimate D2E/DX2                !
 ! D2    D(17,1,2,20)         -178.2648         estimate D2E/DX2                !
 ! D3    D(17,1,2,21)          -61.0626         estimate D2E/DX2                !
 ! D4    D(18,1,2,3)           -60.3367         estimate D2E/DX2                !
 ! D5    D(18,1,2,20)           61.0622         estimate D2E/DX2                !
 ! D6    D(18,1,2,21)          178.2643         estimate D2E/DX2                !
 ! D7    D(19,1,2,3)           179.9993         estimate D2E/DX2                !
 ! D8    D(19,1,2,20)          -58.6018         estimate D2E/DX2                !
 ! D9    D(19,1,2,21)           58.6003         estimate D2E/DX2                !
 ! D10   D(1,2,3,4)           -179.9967         estimate D2E/DX2                !
 ! D11   D(1,2,3,22)           -58.8461         estimate D2E/DX2                !
 ! D12   D(1,2,3,23)            58.8505         estimate D2E/DX2                !
 ! D13   D(20,2,3,4)            59.1063         estimate D2E/DX2                !
 ! D14   D(20,2,3,22)         -179.7431         estimate D2E/DX2                !
 ! D15   D(20,2,3,23)          -62.0465         estimate D2E/DX2                !
 ! D16   D(21,2,3,4)           -59.1            estimate D2E/DX2                !
 ! D17   D(21,2,3,22)           62.0506         estimate D2E/DX2                !
 ! D18   D(21,2,3,23)          179.7471         estimate D2E/DX2                !
 ! D19   D(2,3,4,5)            179.9928         estimate D2E/DX2                !
 ! D20   D(2,3,4,24)            58.9275         estimate D2E/DX2                !
 ! D21   D(2,3,4,25)           -58.9426         estimate D2E/DX2                !
 ! D22   D(22,3,4,5)            58.8621         estimate D2E/DX2                !
 ! D23   D(22,3,4,24)          -62.2031         estimate D2E/DX2                !
 ! D24   D(22,3,4,25)          179.9267         estimate D2E/DX2                !
 ! D25   D(23,3,4,5)           -58.8744         estimate D2E/DX2                !
 ! D26   D(23,3,4,24)         -179.9397         estimate D2E/DX2                !
 ! D27   D(23,3,4,25)           62.1901         estimate D2E/DX2                !
 ! D28   D(3,4,5,6)           -179.992          estimate D2E/DX2                !
 ! D29   D(3,4,5,26)            58.8807         estimate D2E/DX2                !
 ! D30   D(3,4,5,27)           -58.8609         estimate D2E/DX2                !
 ! D31   D(24,4,5,6)           -58.9016         estimate D2E/DX2                !
 ! D32   D(24,4,5,26)          179.9712         estimate D2E/DX2                !
 ! D33   D(24,4,5,27)           62.2295         estimate D2E/DX2                !
 ! D34   D(25,4,5,6)            58.9188         estimate D2E/DX2                !
 ! D35   D(25,4,5,26)          -62.2084         estimate D2E/DX2                !
 ! D36   D(25,4,5,27)         -179.95           estimate D2E/DX2                !
 ! D37   D(4,5,6,7)           -179.9973         estimate D2E/DX2                !
 ! D38   D(4,5,6,28)            59.0089         estimate D2E/DX2                !
 ! D39   D(4,5,6,29)           -59.0047         estimate D2E/DX2                !
 ! D40   D(26,5,6,7)           -58.8808         estimate D2E/DX2                !
 ! D41   D(26,5,6,28)         -179.8745         estimate D2E/DX2                !
 ! D42   D(26,5,6,29)           62.1119         estimate D2E/DX2                !
 ! D43   D(27,5,6,7)            58.878          estimate D2E/DX2                !
 ! D44   D(27,5,6,28)          -62.1157         estimate D2E/DX2                !
 ! D45   D(27,5,6,29)          179.8706         estimate D2E/DX2                !
 ! D46   D(5,6,7,8)            179.9536         estimate D2E/DX2                !
 ! D47   D(5,6,7,30)            58.8103         estimate D2E/DX2                !
 ! D48   D(5,6,7,31)           -58.9016         estimate D2E/DX2                !
 ! D49   D(28,6,7,8)           -59.032          estimate D2E/DX2                !
 ! D50   D(28,6,7,30)          179.8247         estimate D2E/DX2                !
 ! D51   D(28,6,7,31)           62.1128         estimate D2E/DX2                !
 ! D52   D(29,6,7,8)            58.9522         estimate D2E/DX2                !
 ! D53   D(29,6,7,30)          -62.1911         estimate D2E/DX2                !
 ! D54   D(29,6,7,31)         -179.903          estimate D2E/DX2                !
 ! D55   D(6,7,8,9)           -179.8576         estimate D2E/DX2                !
 ! D56   D(6,7,8,32)            59.0252         estimate D2E/DX2                !
 ! D57   D(6,7,8,33)           -58.7682         estimate D2E/DX2                !
 ! D58   D(30,7,8,9)           -58.6519         estimate D2E/DX2                !
 ! D59   D(30,7,8,32)         -179.7691         estimate D2E/DX2                !
 ! D60   D(30,7,8,33)           62.4375         estimate D2E/DX2                !
 ! D61   D(31,7,8,9)            58.916          estimate D2E/DX2                !
 ! D62   D(31,7,8,32)          -62.2012         estimate D2E/DX2                !
 ! D63   D(31,7,8,33)         -179.9947         estimate D2E/DX2                !
 ! D64   D(7,8,9,10)           179.7517         estimate D2E/DX2                !
 ! D65   D(7,8,9,34)           -59.1835         estimate D2E/DX2                !
 ! D66   D(7,8,9,35)            58.7338         estimate D2E/DX2                !
 ! D67   D(32,8,9,10)          -59.1333         estimate D2E/DX2                !
 ! D68   D(32,8,9,34)           61.9315         estimate D2E/DX2                !
 ! D69   D(32,8,9,35)          179.8488         estimate D2E/DX2                !
 ! D70   D(33,8,9,10)           58.6751         estimate D2E/DX2                !
 ! D71   D(33,8,9,34)          179.7398         estimate D2E/DX2                !
 ! D72   D(33,8,9,35)          -62.3428         estimate D2E/DX2                !
 ! D73   D(8,9,10,11)         -179.5952         estimate D2E/DX2                !
 ! D74   D(8,9,10,36)           58.9972         estimate D2E/DX2                !
 ! D75   D(8,9,10,37)          -58.3864         estimate D2E/DX2                !
 ! D76   D(34,9,10,11)          59.3814         estimate D2E/DX2                !
 ! D77   D(34,9,10,36)         -62.0262         estimate D2E/DX2                !
 ! D78   D(34,9,10,37)        -179.4097         estimate D2E/DX2                !
 ! D79   D(35,9,10,11)         -58.6            estimate D2E/DX2                !
 ! D80   D(35,9,10,36)         179.9925         estimate D2E/DX2                !
 ! D81   D(35,9,10,37)          62.6089         estimate D2E/DX2                !
 ! D82   D(9,10,11,12)        -179.3014         estimate D2E/DX2                !
 ! D83   D(9,10,11,38)          59.7404         estimate D2E/DX2                !
 ! D84   D(9,10,11,39)         -58.515          estimate D2E/DX2                !
 ! D85   D(36,10,11,12)        -58.0175         estimate D2E/DX2                !
 ! D86   D(36,10,11,38)       -178.9757         estimate D2E/DX2                !
 ! D87   D(36,10,11,39)         62.7689         estimate D2E/DX2                !
 ! D88   D(37,10,11,12)         59.4747         estimate D2E/DX2                !
 ! D89   D(37,10,11,38)        -61.4835         estimate D2E/DX2                !
 ! D90   D(37,10,11,39)       -179.7389         estimate D2E/DX2                !
 ! D91   D(10,11,12,13)       -179.2435         estimate D2E/DX2                !
 ! D92   D(10,11,12,40)         59.1991         estimate D2E/DX2                !
 ! D93   D(10,11,12,41)        -58.0723         estimate D2E/DX2                !
 ! D94   D(38,11,12,13)        -58.1223         estimate D2E/DX2                !
 ! D95   D(38,11,12,40)       -179.6797         estimate D2E/DX2                !
 ! D96   D(38,11,12,41)         63.0488         estimate D2E/DX2                !
 ! D97   D(39,11,12,13)         59.8934         estimate D2E/DX2                !
 ! D98   D(39,11,12,40)        -61.6641         estimate D2E/DX2                !
 ! D99   D(39,11,12,41)       -178.9355         estimate D2E/DX2                !
 ! D100  D(11,12,13,14)       -174.5864         estimate D2E/DX2                !
 ! D101  D(11,12,13,42)         63.652          estimate D2E/DX2                !
 ! D102  D(11,12,13,43)        -54.8007         estimate D2E/DX2                !
 ! D103  D(40,12,13,14)        -53.6813         estimate D2E/DX2                !
 ! D104  D(40,12,13,42)       -175.4429         estimate D2E/DX2                !
 ! D105  D(40,12,13,43)         66.1044         estimate D2E/DX2                !
 ! D106  D(41,12,13,14)         64.0129         estimate D2E/DX2                !
 ! D107  D(41,12,13,42)        -57.7487         estimate D2E/DX2                !
 ! D108  D(41,12,13,43)       -176.2014         estimate D2E/DX2                !
 ! D109  D(12,13,14,15)       -113.4567         estimate D2E/DX2                !
 ! D110  D(12,13,14,16)         66.8088         estimate D2E/DX2                !
 ! D111  D(42,13,14,15)          8.0886         estimate D2E/DX2                !
 ! D112  D(42,13,14,16)       -171.6458         estimate D2E/DX2                !
 ! D113  D(43,13,14,15)        125.5437         estimate D2E/DX2                !
 ! D114  D(43,13,14,16)        -54.1907         estimate D2E/DX2                !
 ! D115  D(13,14,16,44)        179.7515         estimate D2E/DX2                !
 ! D116  D(15,14,16,44)          0.0093         estimate D2E/DX2                !
 --------------------------------------------------------------------------------
 Trust Radius=3.00D-01 FncErr=1.00D-07 GrdErr=1.00D-06 EigMax=2.50D+02 EigMin=1.00D-04
 Number of steps in this run=    251 maximum allowed number of steps=    264.
 GradGradGradGradGradGradGradGradGradGradGradGradGradGradGradGradGradGrad

 Leave Link  103 at Mon Feb 22 21:19:38 2021, MaxMem=   104857600 cpu:               0.5 elap:               0.0
 (Enter /sw/arch/RedHatEnterpriseServer7/EB_production/2019/software/Gaussian/g16.c01/l202.exe)
                          Input orientation:                          
 ---------------------------------------------------------------------
 Center     Atomic      Atomic             Coordinates (Angstroms)
 Number     Number       Type             X           Y           Z
 ---------------------------------------------------------------------
      1          6           0        2.541790    7.615100    9.928040
      2          6           0        2.813210    6.602630    8.792730
      3          6           0        1.927750    6.854610    7.543280
      4          6           0        2.200000    5.837530    6.402260
      5          6           0        1.314200    6.090160    5.153710
      6          6           0        1.586270    5.073040    4.012820
      7          6           0        0.692920    5.339250    2.771990
      8          6           0        0.940410    4.340420    1.611670
      9          6           0        0.035930    4.631040    0.380110
     10          6           0        0.291220    3.633120   -0.780750
     11          6           0       -0.584400    3.891490   -2.037940
     12          6           0       -0.301670    2.855060   -3.161740
     13          6           0       -1.145770    3.092910   -4.442270
     14          6           0       -0.943120    2.016710   -5.433060
     15          8           0       -0.383400    2.238020   -6.530570
     16          8           0       -1.369820    0.758140   -5.168930
     17          1           0        1.502190    7.552780   10.254510
     18          1           0        2.747530    8.632160    9.589650
     19          1           0        3.187890    7.394770   10.780570
     20          1           0        3.867750    6.669150    8.511310
     21          1           0        2.627790    5.594440    9.173310
     22          1           0        0.874910    6.790860    7.834260
     23          1           0        2.115900    7.866400    7.171680
     24          1           0        2.010840    4.826470    6.773610
     25          1           0        3.252020    5.902380    6.110740
     26          1           0        1.502560    7.101410    4.782140
     27          1           0        0.261870    6.026340    5.444690
     28          1           0        1.396500    4.060750    4.380980
     29          1           0        2.637730    5.136470    3.718290
     30          1           0        0.884080    6.353560    2.409640
     31          1           0       -0.357210    5.276490    3.071750
     32          1           0        0.746760    3.323370    1.966720
     33          1           0        1.990050    4.398430    1.307120
     34          1           0       -1.013630    4.568420    0.683750
     35          1           0        0.227820    5.648740    0.027110
     36          1           0        0.096870    2.618940   -0.417870
     37          1           0        1.344550    3.695320   -1.070060
     38          1           0       -0.384030    4.896570   -2.419430
     39          1           0       -1.640810    3.836070   -1.758180
     40          1           0       -0.511610    1.856610   -2.767960
     41          1           0        0.759140    2.897010   -3.428510
     42          1           0       -0.876560    4.058730   -4.882500
     43          1           0       -2.209390    3.122720   -4.189570
     44          1           0       -1.239940    0.041290   -5.826840
 ---------------------------------------------------------------------
                    Distance matrix (angstroms):
                    1          2          3          4          5
     1  C    0.000000
     2  C    1.545216   0.000000
     3  C    2.577299   1.551985   0.000000
     4  C    3.963294   2.583748   1.552578   0.000000
     5  C    5.160101   3.968894   2.582803   1.551561   0.000000
     6  C    6.508834   5.166485   3.969225   2.582737   1.552477
     7  C    7.733490   6.507002   5.156193   3.962125   2.573411
     8  C    9.080196   7.758389   6.517667   5.174713   3.968294
     9  C   10.312464   9.075937   7.735260   6.511920   5.152695
    10  C   11.644716  10.335857   9.074453   7.752322   6.503949
    11  C   12.915998  11.670366  10.338799   9.098183   7.756201
    12  C   14.215681  12.909536  11.643203  10.325869   9.067724
    13  C   15.509807  14.253311  12.932530  11.676084  10.349773
    14  C   16.716757  15.411482  14.143287  12.827808  11.565820
    15  O   17.560056  16.250282  14.990916  13.670718  12.419470
    16  O   17.036346  15.702985  14.478992  13.131499  11.924399
    17  H    1.091437   2.181366   2.831839   4.274208   5.309685
    18  H    1.091443   2.181373   2.831846   4.274249   5.309780
    19  H    1.092153   2.172413   3.515647   4.750844   6.072419
    20  H    2.158730   1.093470   2.176023   2.814440   4.257854
    21  H    2.158722   1.093466   2.176024   2.814394   4.257751
    22  H    2.800317   2.170507   1.094169   2.171480   2.805228
    23  H    2.800367   2.170520   1.094169   2.171496   2.805344
    24  H    4.243677   2.806312   2.170863   1.093583   2.169400
    25  H    4.243774   2.806417   2.170853   1.093588   2.169404
    26  H    5.274861   4.248696   2.804566   2.169932   1.093696
    27  H    5.274715   4.248625   2.804508   2.170009   1.093682
    28  H    6.686925   5.285051   4.253001   2.808582   2.173106
    29  H    6.686838   5.284918   4.252837   2.808343   2.172944
    30  H    7.801655   6.672887   5.262562   4.235439   2.790036
    31  H    7.802693   6.673816   5.263657   4.236317   2.791098
    32  H    9.220829   7.849724   6.705402   5.301596   4.258406
    33  H    9.218007   7.846684   6.702715   5.298636   4.256169
    34  H   10.362440   9.194470   7.805865   6.681273   5.264506
    35  H   10.356131   9.188593   7.799788   6.675902   5.259002
    36  H   11.746365  10.396319   9.201790   7.829218   6.676359
    37  H   11.736961  10.386724   9.192979   7.820257   6.668695
    38  H   12.977320  11.783273  10.413157   9.240391   7.852458
    39  H   12.974704  11.781929  10.409772   9.238530   7.847753
    40  H   14.271366  12.931693  11.715466  10.358257   9.165663
    41  H   14.277102  12.934819  11.722134  10.361794   9.173810
    42  H   15.610413  14.390891  13.041515  11.831110  10.471468
    43  H   15.558345  14.348394  12.988560  11.789817  10.417210
    44  H   17.885198  16.529097  15.336743  13.963541  12.793941
                    6          7          8          9         10
     6  C    0.000000
     7  C    1.551967   0.000000
     8  C    2.592178   1.550889   0.000000
     9  C    3.974355   2.579591   1.555405   0.000000
    10  C    5.169994   3.961591   2.577866   1.551971   0.000000
    11  C    6.536021   5.182951   3.980733   2.603595   1.553703
    12  C    7.743259   6.509190   5.151165   3.976529   2.574104
    13  C    9.103489   7.776398   6.523697   5.197846   3.970327
    14  C   10.245175   9.002152   7.653466   6.448737   5.077437
    15  O   11.094143   9.864771   8.512851   7.325290   5.954985
    16  O   10.566994   9.396791   8.009147   6.911391   5.502789
    17  H    6.716761   7.844918   9.237615  10.401455  11.773154
    18  H    6.716911   7.845073   9.237580  10.400835  11.771536
    19  H    7.331989   8.636399   9.922144  11.213502  12.498193
    20  H    5.290475   6.692382   7.848397   9.217003  10.409199
    21  H    5.290300   6.692215   7.848453   9.217714  10.411035
    22  H    4.249746   5.269428   6.688017   7.805963   9.194042
    23  H    4.249913   5.269595   6.687901   7.805079   9.191913
    24  H    2.804107   4.244151   5.294118   6.694423   7.838975
    25  H    2.804246   4.244215   5.293854   6.693255   7.836358
    26  H    2.170978   2.793104   4.241575   5.256577   6.666493
    27  H    2.170960   2.793067   4.242026   5.258125   6.669668
    28  H    1.093748   2.172196   2.820516   4.264193   5.296033
    29  H    1.093773   2.172300   2.820007   4.262425   5.292214
    30  H    2.168637   1.093922   2.166255   2.793819   4.234485
    31  H    2.168898   1.093877   2.166074   2.795727   4.238264
    32  H    2.820044   2.171435   1.094510   2.175457   2.802152
    33  H    2.817614   2.171067   1.094468   2.175325   2.798379
    34  H    4.254037   2.804860   2.175153   1.094392   2.173058
    35  H    4.250024   2.801155   2.174929   1.094141   2.172414
    36  H    5.279388   4.234450   2.791789   2.165417   1.094539
    37  H    5.271832   4.229477   2.787680   2.165883   1.094108
    38  H    6.729566   5.320397   4.279394   2.843290   2.176589
    39  H    6.726707   5.313030   4.274688   2.831204   2.174695
    40  H    7.792657   6.653625   5.240118   4.231738   2.783797
    41  H    7.796964   6.664467   5.245923   4.246820   2.787730
    42  H    9.285530   7.917968   6.749442   5.371707   4.285931
    43  H    9.246079   7.861280   6.712557   5.310223   4.258358
    44  H   11.407229  10.283200   8.863852   7.824313   6.380338
                   11         12         13         14         15
    11  C    0.000000
    12  C    1.554686   0.000000
    13  C    2.594931   1.552042   0.000000
    14  C    3.894909   2.504632   1.476800   0.000000
    15  O    4.791460   3.425848   2.381815   1.251716   0.000000
    16  O    4.498651   3.093029   2.455480   1.354930   2.239896
    17  H   12.994739  14.328930  15.585168  16.814502  17.707090
    18  H   12.991403  14.327263  15.579982  16.824592  17.622407
    19  H   13.813665  15.072293  16.401874  17.574714  18.412543
    20  H   11.782347  12.968864  14.342946  15.467227  16.247010
    21  H   11.786023  12.970713  14.348569  15.456312  16.338441
    22  H   10.392125  11.738266  12.979644  14.216875  15.121509
    23  H   10.387908  11.736172  12.973378  14.228702  15.022544
    24  H    9.233248  10.389675  11.779872  12.869476  13.763490
    25  H    9.228368  10.387192  11.772837  12.882428  13.654543
    26  H    7.821284   9.186510  10.400551  11.669869  12.457400
    27  H    7.827101   9.189409  10.408575  11.655667  12.576748
    28  H    6.719758   7.824966   9.233071  10.294042  11.205013
    29  H    6.713142   7.821746   9.224194  10.310315  11.071015
    30  H    5.291426   6.684742   7.854986   9.146304   9.923282
    31  H    5.298941   6.687511   7.864499   9.126952  10.071620
    32  H    4.258174   5.255437   6.686549   7.701935   8.640555
    33  H    4.251377   5.254016   6.677817   7.726972   8.469358
    34  H    2.837264   4.269694   5.335792   6.628089   7.607520
    35  H    2.830558   4.272443   5.328637   6.661546   7.416857
    36  H    2.169825   2.782698   4.238466   5.157169   6.143359
    37  H    2.167054   2.791273   4.235138   5.204511   5.909882
    38  H    1.093558   2.173838   2.815194   4.205727   4.895851
    39  H    1.094230   2.173858   2.828726   4.159517   5.187538
    40  H    2.163091   1.093636   2.175755   2.704550   3.784065
    41  H    2.174345   1.094643   2.166741   2.773236   3.370822
    42  H    2.864411   2.177231   1.095027   2.115985   2.504861
    43  H    2.803767   2.183454   1.093633   2.091164   3.097937
    44  H    5.441465   3.987532   3.352355   2.036038   2.460593
                   16         17         18         19         20
    16  O    0.000000
    17  H   17.096727   0.000000
    18  H   17.226969   1.777068   0.000000
    19  H   17.866285   1.772933   1.772947   0.000000
    20  H   15.796238   3.068456   2.504220   2.477554   0.000000
    21  H   15.654729   2.504209   3.068456   2.477536   1.769392
    22  H   14.509151   2.613735   3.158874   3.794117   3.070880
    23  H   14.661796   3.158930   2.613795   3.794165   2.509381
    24  H   13.061563   4.450635   4.791249   4.902789   3.140571
    25  H   13.230857   4.791300   4.450733   4.902923   2.594185
    26  H   12.145429   5.490953   5.196662   6.237592   4.437080
    27  H   11.960990   5.196420   5.490856   6.237452   4.777000
    28  H   10.476666   6.834018   7.060688   7.435020   5.474528
    29  H   10.687044   7.060466   6.834089   7.434944   5.180260
    30  H    9.686254   7.960036   7.759962   8.744377   6.799431
    31  H    9.452496   7.760857   7.961341   8.745327   7.026991
    32  H    7.872599   9.335205   9.502389  10.010962   7.985392
    33  H    8.153506   9.499669   9.332660  10.007953   7.783462
    34  H    6.992780  10.336112  10.486914  11.295433   9.461059
    35  H    7.312267  10.480892  10.329177  11.289266   9.288271
    36  H    5.309080  11.841343  11.972271  12.560574  10.504951
    37  H    5.726741  11.964562  11.830899  12.550748  10.344702
    38  H    5.065386  13.085948  12.960683  13.901065  11.861735
    39  H    4.602206  12.961370  13.077968  13.899674  11.993040
    40  H    2.776296  14.355712  14.465151  15.097026  13.021569
    41  H    3.483719  14.472503  14.363778  15.100551  12.901620
    42  H    3.349514  15.716103  15.604276  16.522127  14.447038
    43  H    2.693559  15.557400  15.645827  16.476836  14.519681
    44  H    0.981625  17.959721  18.093400  18.694529  16.601192
                   21         22         23         24         25
    21  H    0.000000
    22  H    2.509395   0.000000
    23  H    3.070889   1.770834   0.000000
    24  H    2.594025   2.504824   3.067682   0.000000
    25  H    3.140673   3.067665   2.504743   1.771301   0.000000
    26  H    4.776973   3.131425   2.582885   3.065885   2.502691
    27  H    4.436972   2.582703   3.131412   2.502921   3.065940
    28  H    5.180223   4.432911   4.773732   2.586198   3.134745
    29  H    5.474219   4.773442   4.432914   3.134337   2.586076
    30  H    7.025953   5.442225   5.146172   4.758763   4.416882
    31  H    6.800026   5.147129   5.443651   4.417459   4.759594
    32  H    7.786589   6.816739   7.043101   5.192629   5.486394
    33  H    7.982111   7.040654   6.814376   5.483262   5.189335
    34  H    9.294368   7.722410   7.922365   6.804440   7.030465
    35  H    9.455992   7.916739   7.715422   7.026418   6.798579
    36  H   10.356152   9.279435   9.445294   7.762336   7.959818
    37  H   10.496666   9.438742   9.269259   7.952773   7.750706
    38  H   11.997904  10.502925  10.346929   9.500121   9.327181
    39  H   11.866351  10.347683  10.492799   9.333107   9.493647
    40  H   12.900432  11.776091  11.908729  10.306521  10.457747
    41  H   13.022052  11.917443  11.785570  10.458146  10.307473
    42  H   14.567246  13.124335  12.990628  12.032930  11.886780
    43  H   14.424780  12.943749  13.049469  11.870317  11.985403
    44  H   16.456042  15.383593  15.538839  13.864951  14.036948
                   26         27         28         29         30
    26  H    0.000000
    27  H    1.770328   0.000000
    28  H    3.068842   2.506473   0.000000
    29  H    2.506268   3.068719   1.771153   0.000000
    30  H    2.563309   3.115405   3.066877   2.503829   0.000000
    31  H    3.116811   2.564445   2.503519   3.067130   1.771799
    32  H    4.771940   4.431415   2.606634   3.151364   3.065467
    33  H    4.429392   4.770344   3.148801   2.603446   2.502250
    34  H    5.435444   5.139940   4.442518   4.781584   3.125176
    35  H    5.132789   5.430830   4.779509   4.437893   2.569805
    36  H    7.007753   6.782861   5.176564   5.468249   4.749937
    37  H    6.773084   7.003415   5.463522   5.165029   4.403020
    38  H    7.764223   7.971070   7.079157   6.845450   5.201042
    39  H    7.957324   7.765231   6.853103   7.070266   5.484847
    40  H    9.411101   9.242972   7.720522   7.921317   6.998432
    41  H    9.254427   9.421978   7.921405   7.721466   6.785819
    42  H   10.407852  10.574420   9.538284   9.353360   7.844833
    43  H   10.492861  10.361327   9.345409   9.491260   7.972293
    44  H   13.035224  12.850045  11.283017  11.493767  10.592253
                   31         32         33         34         35
    31  H    0.000000
    32  H    2.500904   0.000000
    33  H    3.065051   1.771044   0.000000
    34  H    2.575809   2.509011   3.072390   0.000000
    35  H    3.122605   3.072252   2.511405   1.771854   0.000000
    36  H    4.409786   2.569990   3.118703   2.499450   3.065101
    37  H    4.748755   3.117328   2.561644   3.065806   2.503341
    38  H    5.504372   4.794993   4.446524   3.183364   2.631668
    39  H    5.201025   4.454013   4.784920   2.625398   3.156709
    40  H    6.769168   5.113910   5.415296   4.418172   4.768587
    41  H    7.011529   5.412065   5.118163   4.779854   4.449228
    42  H    8.063669   7.077269   6.829659   5.591217   5.277505
    43  H    7.797183   6.832202   7.033942   5.221986   5.486452
    44  H   10.362019   8.686691   8.961634   7.933089   8.238115
                   36         37         38         39         40
    36  H    0.000000
    37  H    1.772188   0.000000
    38  H    3.070033   2.500358   0.000000
    39  H    2.509456   3.066870   1.772402   0.000000
    40  H    2.544468   3.115935   3.062533   2.492591   0.000000
    41  H    3.095138   2.557790   2.514621   3.071090   1.770188
    42  H    4.790979   4.427199   2.647881   3.224133   3.074703
    43  H    4.449534   4.763371   3.100303   2.596884   2.550778
    44  H    6.139079   6.531346   5.993060   5.578086   3.630785
                   41         42         43         44
    41  H    0.000000
    42  H    2.477740   0.000000
    43  H    3.072837   1.769944   0.000000
    44  H    4.231246   4.142903   3.621560   0.000000
 Stoichiometry    C14H28O2
 Framework group  C1[X(C14H28O2)]
 Deg. of freedom   126
 Full point group                 C1      NOp   1
 Largest Abelian subgroup         C1      NOp   1
 Largest concise Abelian subgroup C1      NOp   1
                         Standard orientation:                         
 ---------------------------------------------------------------------
 Center     Atomic      Atomic             Coordinates (Angstroms)
 Number     Number       Type             X           Y           Z
 ---------------------------------------------------------------------
      1          6           0        9.368842   -0.179153   -0.123252
      2          6           0        8.058601    0.564299    0.220609
      3          6           0        6.792831   -0.259474   -0.136998
      4          6           0        5.476037    0.487099    0.208226
      5          6           0        4.211229   -0.337166   -0.149807
      6          6           0        2.894501    0.409414    0.195202
      7          6           0        1.639487   -0.427921   -0.168686
      8          6           0        0.305296    0.289128    0.164526
      9          6           0       -0.935804   -0.571978   -0.206217
     10          6           0       -2.268459    0.146723    0.134536
     11          6           0       -3.537095   -0.681426   -0.210025
     12          6           0       -4.841946    0.090399    0.134505
     13          6           0       -6.131638   -0.714053   -0.179163
     14          6           0       -7.344800    0.098914    0.040520
     15          8           0       -8.158329   -0.176975    0.950932
     16          8           0       -7.602599    1.166463   -0.753027
     17          1           0        9.417226   -0.392529   -1.192535
     18          1           0        9.431202   -1.118166    0.429572
     19          1           0       10.226261    0.441087    0.146808
     20          1           0        8.056348    0.789580    1.290619
     21          1           0        8.042446    1.512078   -0.324482
     22          1           0        6.805151   -0.484433   -1.207721
     23          1           0        6.819017   -1.207481    0.408715
     24          1           0        5.449631    1.434043   -0.338148
     25          1           0        5.463391    0.710652    1.278647
     26          1           0        4.237315   -1.284604    0.395952
     27          1           0        4.223640   -0.561891   -1.220080
     28          1           0        2.864628    1.356515   -0.351051
     29          1           0        2.878504    0.633357    1.265685
     30          1           0        1.675667   -1.375014    0.377546
     31          1           0        1.660809   -0.650784   -1.239408
     32          1           0        0.260963    1.236147   -0.382411
     33          1           0        0.277928    0.515017    1.235080
     34          1           0       -0.910741   -0.793853   -1.277589
     35          1           0       -0.889768   -1.519690    0.338637
     36          1           0       -2.304820    1.092757   -0.414748
     37          1           0       -2.279633    0.373658    1.204793
     38          1           0       -3.519445   -1.621582    0.348244
     39          1           0       -3.533209   -0.917848   -1.278402
     40          1           0       -4.848287    1.024234   -0.434662
     41          1           0       -4.837242    0.343668    1.199435
     42          1           0       -6.165326   -1.609367    0.450410
     43          1           0       -6.126786   -1.037039   -1.224003
     44          1           0       -8.409932    1.706754   -0.612007
 ---------------------------------------------------------------------
 Rotational constants (GHZ):           3.7050329           0.0666242           0.0663165
 Leave Link  202 at Mon Feb 22 21:19:38 2021, MaxMem=   104857600 cpu:               0.7 elap:               0.1
 (Enter /sw/arch/RedHatEnterpriseServer7/EB_production/2019/software/Gaussian/g16.c01/l301.exe)
 Standard basis: TZVP (5D, 7F)
 Ernie: Thresh=  0.10000D-02 Tol=  0.10000D-05 Strict=F.
 There are   488 symmetry adapted cartesian basis functions of A   symmetry.
 There are   472 symmetry adapted basis functions of A   symmetry.
   472 basis functions,   784 primitive gaussians,   488 cartesian basis functions
    64 alpha electrons       64 beta electrons
       nuclear repulsion energy       989.8116636829 Hartrees.
 IExCor=  404 DFT=T Ex=B Corr=P86 ExCW=0 ScaHFX=  0.000000
 ScaDFX=  1.000000  1.000000  1.000000  1.000000 ScalE2=  1.000000  1.000000
 IRadAn=      5 IRanWt=     -1 IRanGd=            0 ICorTp=0 IEmpDi=131
 NAtoms=   44 NActive=   44 NUniq=   44 SFac= 1.00D+00 NAtFMM=   60 NAOKFM=F Big=F
 Integral buffers will be    131072 words long.
 Raffenetti 2 integral format.
 Two-electron integral symmetry is turned on.
 R6Disp:  Grimme-D3 Dispersion energy=       -0.0413114891 Hartrees.
 Nuclear repulsion after empirical dispersion term =      989.7703521938 Hartrees.
 ------------------------------------------------------------------------------
 Polarizable Continuum Model (PCM)
 =================================
 Model                : PCM.
 Atomic radii         : UFF (Universal Force Field).
 Polarization charges : Total charges.
 Charge compensation  : None.
 Solution method      : On-the-fly selection.
 Cavity type          : Scaled VdW (van der Waals Surface) (Alpha=1.100).
 Cavity algorithm     : GePol (No added spheres)
                        Default sphere list used, NSphG=   44.
                        Lebedev-Laikov grids with approx.  5.0 points / Ang**2.
                        Smoothing algorithm: York/Karplus (Gamma=1.0000).
                        Polarization charges: spherical gaussians, with
                                              point-specific exponents (IZeta= 3).
                        Self-potential: point-specific (ISelfS= 7).
                        Self-field    : sphere-specific E.n sum rule (ISelfD= 2).
 1st derivatives      : Analytical E(r).r(x)/FMM algorithm (CHGder, D1EAlg=3).
                        Cavity 1st derivative terms included.
 Solvent              : Water, Eps=  78.355300 Eps(inf)=   1.777849
 ------------------------------------------------------------------------------
 GePol: Number of generator spheres                  =      44
 GePol: Total number of spheres                      =      44
 GePol: Number of exposed spheres                    =      44 (100.00%)
 GePol: Number of points                             =    2995
 GePol: Average weight of points                     =       0.14
 GePol: Minimum weight of points                     =   0.16D-09
 GePol: Maximum weight of points                     =    0.20577
 GePol: Number of points with low weight             =     180
 GePol: Fraction of low-weight points (<1% of avg)   =       6.01%
 GePol: Cavity surface area                          =    407.031 Ang**2
 GePol: Cavity volume                                =    407.822 Ang**3
 Leave Link  301 at Mon Feb 22 21:19:38 2021, MaxMem=   104857600 cpu:               2.3 elap:               0.1
 (Enter /sw/arch/RedHatEnterpriseServer7/EB_production/2019/software/Gaussian/g16.c01/l302.exe)
 NPDir=0 NMtPBC=     1 NCelOv=     1 NCel=       1 NClECP=     1 NCelD=      1
         NCelK=      1 NCelE2=     1 NClLst=     1 CellRange=     0.0.
 One-electron integrals computed using PRISM.
 One-electron integral symmetry used in STVInt
 PrsmSu:  requested number of processors reduced to:  25 ShMem   1 Linda.
 NBasis=   472 RedAO= T EigKep=  5.05D-05  NBF=   472
 NBsUse=   472 1.00D-06 EigRej= -1.00D+00 NBFU=   472
 Precomputing XC quadrature grid using
 IXCGrd= 4 IRadAn=           5 IRanWt=          -1 IRanGd=           0 AccXCQ= 0.00D+00.
 Generated NRdTot=       0 NPtTot=           0 NUsed=           0 NTot=          32
 NSgBfM=   439   439   439   439   439 MxSgAt=    44 MxSgA2=    44.
 Leave Link  302 at Mon Feb 22 21:19:39 2021, MaxMem=   104857600 cpu:              19.4 elap:               0.7
 (Enter /sw/arch/RedHatEnterpriseServer7/EB_production/2019/software/Gaussian/g16.c01/l303.exe)
 DipDrv:  MaxL=1.
 Leave Link  303 at Mon Feb 22 21:19:39 2021, MaxMem=   104857600 cpu:               2.1 elap:               0.1
 (Enter /sw/arch/RedHatEnterpriseServer7/EB_production/2019/software/Gaussian/g16.c01/l401.exe)
 ExpMin= 9.52D-02 ExpMax= 2.70D+04 ExpMxC= 9.22D+02 IAcc=3 IRadAn=         5 AccDes= 0.00D+00
 Harris functional with IExCor=  404 and IRadAn=       5 diagonalized for initial guess.
 HarFok:  IExCor=  404 AccDes= 0.00D+00 IRadAn=         5 IDoV= 1 UseB2=F ITyADJ=14
 ICtDFT=  3500011 ScaDFX=  1.000000  1.000000  1.000000  1.000000
 FoFCou: FMM=F IPFlag=           0 FMFlag=      100000 FMFlg1=           0
         NFxFlg=           0 DoJE=T BraDBF=F KetDBF=T FulRan=T
         wScrn=  0.000000 ICntrl=       500 IOpCl=  0 I1Cent=   200000004 NGrid=           0
         NMat0=    1 NMatS0=      1 NMatT0=    0 NMatD0=    1 NMtDS0=    0 NMtDT0=    0
 Petite list used in FoFCou.
 Harris En= -701.559723403953    
 JPrj=0 DoOrth=F DoCkMO=F.
 Leave Link  401 at Mon Feb 22 21:19:40 2021, MaxMem=   104857600 cpu:              28.1 elap:               0.9
 (Enter /sw/arch/RedHatEnterpriseServer7/EB_production/2019/software/Gaussian/g16.c01/l502.exe)
 Integral symmetry usage will be decided dynamically.
 Closed shell SCF:
 Using DIIS extrapolation, IDIIS=  1040.
 NGot=   104857600 LenX=   104359498 LenY=   104120866
 Requested convergence on RMS density matrix=1.00D-08 within 128 cycles.
 Requested convergence on MAX density matrix=1.00D-06.
 Requested convergence on             energy=1.00D-06.
 No special actions if energy rises.
 Fock matrices will be formed incrementally for  20 cycles.

 Cycle   1  Pass 1  IDiag  1:
 FoFJK:  IHMeth= 1 ICntrl=     500 DoSepK=F KAlg= 0 I1Cent=           0 FoldK=F
 IRaf= 630000000 NMat=       1 IRICut=       1 DoRegI=T DoRafI=F ISym2E= 0 IDoP0=0 IntGTp=1.
 FoFCou: FMM=F IPFlag=           0 FMFlag=      100000 FMFlg1=           0
         NFxFlg=           0 DoJE=T BraDBF=F KetDBF=F FulRan=T
         wScrn=  0.000000 ICntrl=       500 IOpCl=  0 I1Cent=           0 NGrid=           0
         NMat0=    1 NMatS0=      1 NMatT0=    0 NMatD0=    1 NMtDS0=    0 NMtDT0=    0
 Symmetry not used in FoFCou.
 Inv3:  Mode=1 IEnd=    26910075.
 Iteration    1 A*A^-1 deviation from unit magnitude is 2.89D-15 for    760.
 Iteration    1 A*A^-1 deviation from orthogonality  is 2.94D-15 for   2681   1715.
 Iteration    1 A^-1*A deviation from unit magnitude is 2.89D-15 for    760.
 Iteration    1 A^-1*A deviation from orthogonality  is 1.66D-15 for    460    183.
 E= -700.523131458952    
 DIIS: error= 4.56D-02 at cycle   1 NSaved=   1.
 NSaved= 1 IEnMin= 1 EnMin= -700.523131458952     IErMin= 1 ErrMin= 4.56D-02
 ErrMax= 4.56D-02  0.00D+00 EMaxC= 1.00D-01 BMatC= 5.70D-01 BMatP= 5.70D-01
 IDIUse=3 WtCom= 5.44D-01 WtEn= 4.56D-01
 Coeff-Com:  0.100D+01
 Coeff-En:   0.100D+01
 Coeff:      0.100D+01
 Gap=     0.064 Goal=   None    Shift=    0.000
 GapD=    0.064 DampG=0.500 DampE=0.500 DampFc=0.2500 IDamp=-1.
 Damping current iteration by 2.50D-01
 RMSDP=5.16D-03 MaxDP=5.87D-01              OVMax= 2.67D-01

 Cycle   2  Pass 1  IDiag  1:
 RMSU=  1.29D-03    CP:  9.88D-01
 E= -700.734916798668     Delta-E=       -0.211785339716 Rises=F Damp=T
 DIIS: error= 1.87D-02 at cycle   2 NSaved=   2.
 NSaved= 2 IEnMin= 2 EnMin= -700.734916798668     IErMin= 2 ErrMin= 1.87D-02
 ErrMax= 1.87D-02  0.00D+00 EMaxC= 1.00D-01 BMatC= 8.89D-02 BMatP= 5.70D-01
 IDIUse=3 WtCom= 8.13D-01 WtEn= 1.87D-01
 Coeff-Com: -0.474D+00 0.147D+01
 Coeff-En:   0.000D+00 0.100D+01
 Coeff:     -0.385D+00 0.139D+01
 Gap=     0.160 Goal=   None    Shift=    0.000
 RMSDP=9.74D-04 MaxDP=6.30D-02 DE=-2.12D-01 OVMax= 2.28D-01

 Cycle   3  Pass 1  IDiag  1:
 RMSU=  9.62D-04    CP:  9.72D-01  1.06D+00
 E= -701.019101918176     Delta-E=       -0.284185119508 Rises=F Damp=F
 DIIS: error= 2.71D-02 at cycle   3 NSaved=   3.
 NSaved= 3 IEnMin= 3 EnMin= -701.019101918176     IErMin= 2 ErrMin= 1.87D-02
 ErrMax= 2.71D-02  0.00D+00 EMaxC= 1.00D-01 BMatC= 9.96D-02 BMatP= 8.89D-02
 IDIUse=2 WtCom= 0.00D+00 WtEn= 1.00D+00
 Coeff-En:   0.000D+00 0.000D+00 0.100D+01
 Coeff:      0.000D+00 0.000D+00 0.100D+01
 Gap=     0.204 Goal=   None    Shift=    0.000
 RMSDP=2.76D-03 MaxDP=3.04D-01 DE=-2.84D-01 OVMax= 4.95D-01

 Cycle   4  Pass 1  IDiag  1:
 RMSU=  1.58D-03    CP:  9.97D-01  1.98D+00 -9.90D-01
 E= -700.334102976759     Delta-E=        0.684998941418 Rises=F Damp=F
 DIIS: error= 9.15D-02 at cycle   4 NSaved=   4.
 NSaved= 4 IEnMin= 3 EnMin= -701.019101918176     IErMin= 2 ErrMin= 1.87D-02
 ErrMax= 9.15D-02  0.00D+00 EMaxC= 1.00D-01 BMatC= 9.38D-01 BMatP= 8.89D-02
 IDIUse=2 WtCom= 0.00D+00 WtEn= 1.00D+00
 Coeff-En:   0.000D+00 0.000D+00 0.844D+00 0.156D+00
 Coeff:      0.000D+00 0.000D+00 0.844D+00 0.156D+00
 Gap=     0.134 Goal=   None    Shift=    0.000
 RMSDP=1.82D-03 MaxDP=2.25D-01 DE= 6.85D-01 OVMax= 2.30D-01

 Cycle   5  Pass 1  IDiag  1:
 RMSU=  3.58D-04    CP:  9.87D-01  1.18D+00  1.12D-01  3.76D-01
 E= -701.027152138502     Delta-E=       -0.693049161743 Rises=F Damp=F
 DIIS: error= 2.75D-02 at cycle   5 NSaved=   5.
 NSaved= 5 IEnMin= 5 EnMin= -701.027152138502     IErMin= 2 ErrMin= 1.87D-02
 ErrMax= 2.75D-02  0.00D+00 EMaxC= 1.00D-01 BMatC= 9.32D-02 BMatP= 8.89D-02
 IDIUse=3 WtCom= 7.25D-01 WtEn= 2.75D-01
 Coeff-Com: -0.570D-01 0.134D+00 0.402D+00-0.686D-01 0.589D+00
 Coeff-En:   0.000D+00 0.000D+00 0.482D+00 0.000D+00 0.518D+00
 Coeff:     -0.413D-01 0.971D-01 0.424D+00-0.497D-01 0.570D+00
 Gap=     0.176 Goal=   None    Shift=    0.000
 RMSDP=5.77D-04 MaxDP=5.41D-02 DE=-6.93D-01 OVMax= 9.71D-02

 Cycle   6  Pass 1  IDiag  1:
 RMSU=  8.19D-05    CP:  9.79D-01  1.06D+00  5.51D-01  1.67D-01  7.26D-01
 E= -701.101058957158     Delta-E=       -0.073906818657 Rises=F Damp=F
 DIIS: error= 6.52D-04 at cycle   6 NSaved=   6.
 NSaved= 6 IEnMin= 6 EnMin= -701.101058957158     IErMin= 6 ErrMin= 6.52D-04
 ErrMax= 6.52D-04  0.00D+00 EMaxC= 1.00D-01 BMatC= 1.33D-04 BMatP= 8.89D-02
 IDIUse=3 WtCom= 9.93D-01 WtEn= 6.52D-03
 Coeff-Com: -0.133D-01 0.254D-01 0.160D+00-0.297D-01 0.248D+00 0.609D+00
 Coeff-En:   0.000D+00 0.000D+00 0.000D+00 0.000D+00 0.000D+00 0.100D+01
 Coeff:     -0.132D-01 0.253D-01 0.159D+00-0.295D-01 0.246D+00 0.612D+00
 Gap=     0.178 Goal=   None    Shift=    0.000
 RMSDP=4.40D-05 MaxDP=3.71D-03 DE=-7.39D-02 OVMax= 4.45D-03

 Cycle   7  Pass 1  IDiag  1:
 RMSU=  3.14D-05    CP:  9.79D-01  1.08D+00  5.45D-01  1.77D-01  7.28D-01
                    CP:  8.15D-01
 E= -701.101095111834     Delta-E=       -0.000036154676 Rises=F Damp=F
 DIIS: error= 1.05D-03 at cycle   7 NSaved=   7.
 NSaved= 7 IEnMin= 7 EnMin= -701.101095111834     IErMin= 6 ErrMin= 6.52D-04
 ErrMax= 1.05D-03  0.00D+00 EMaxC= 1.00D-01 BMatC= 1.08D-04 BMatP= 1.33D-04
 IDIUse=3 WtCom= 9.93D-01 WtEn= 6.52D-03
 Coeff-Com: -0.480D-03 0.118D-02 0.405D-01-0.870D-02 0.568D-01 0.419D+00
 Coeff-Com:  0.492D+00
 Coeff-En:   0.000D+00 0.000D+00 0.000D+00 0.000D+00 0.000D+00 0.414D+00
 Coeff-En:   0.586D+00
 Coeff:     -0.477D-03 0.117D-02 0.402D-01-0.864D-02 0.564D-01 0.419D+00
 Coeff:      0.492D+00
 Gap=     0.178 Goal=   None    Shift=    0.000
 RMSDP=1.80D-05 MaxDP=1.28D-03 DE=-3.62D-05 OVMax= 2.60D-03

 Cycle   8  Pass 1  IDiag  1:
 RMSU=  9.15D-06    CP:  9.79D-01  1.07D+00  5.50D-01  1.74D-01  7.23D-01
                    CP:  8.37D-01  6.65D-01
 E= -701.101169935417     Delta-E=       -0.000074823583 Rises=F Damp=F
 DIIS: error= 1.95D-04 at cycle   8 NSaved=   8.
 NSaved= 8 IEnMin= 8 EnMin= -701.101169935417     IErMin= 8 ErrMin= 1.95D-04
 ErrMax= 1.95D-04  0.00D+00 EMaxC= 1.00D-01 BMatC= 8.14D-06 BMatP= 1.08D-04
 IDIUse=3 WtCom= 9.98D-01 WtEn= 1.95D-03
 Coeff-Com:  0.299D-02-0.495D-02 0.851D-02-0.670D-03 0.278D-02 0.203D+00
 Coeff-Com:  0.286D+00 0.503D+00
 Coeff-En:   0.000D+00 0.000D+00 0.000D+00 0.000D+00 0.000D+00 0.000D+00
 Coeff-En:   0.000D+00 0.100D+01
 Coeff:      0.299D-02-0.494D-02 0.850D-02-0.669D-03 0.277D-02 0.202D+00
 Coeff:      0.285D+00 0.504D+00
 Gap=     0.178 Goal=   None    Shift=    0.000
 RMSDP=7.58D-06 MaxDP=9.06D-04 DE=-7.48D-05 OVMax= 5.41D-04

 Cycle   9  Pass 1  IDiag  1:
 RMSU=  3.23D-06    CP:  9.79D-01  1.07D+00  5.53D-01  1.72D-01  7.21D-01
                    CP:  8.67D-01  6.39D-01  6.82D-01
 E= -701.101176258695     Delta-E=       -0.000006323277 Rises=F Damp=F
 DIIS: error= 4.17D-05 at cycle   9 NSaved=   9.
 NSaved= 9 IEnMin= 9 EnMin= -701.101176258695     IErMin= 9 ErrMin= 4.17D-05
 ErrMax= 4.17D-05  0.00D+00 EMaxC= 1.00D-01 BMatC= 2.07D-07 BMatP= 8.14D-06
 IDIUse=1 WtCom= 1.00D+00 WtEn= 0.00D+00
 Coeff-Com:  0.106D-02-0.147D-02 0.109D-02 0.473D-04-0.199D-02 0.468D-01
 Coeff-Com:  0.681D-01 0.179D+00 0.707D+00
 Coeff:      0.106D-02-0.147D-02 0.109D-02 0.473D-04-0.199D-02 0.468D-01
 Coeff:      0.681D-01 0.179D+00 0.707D+00
 Gap=     0.178 Goal=   None    Shift=    0.000
 RMSDP=9.61D-07 MaxDP=2.80D-05 DE=-6.32D-06 OVMax= 1.31D-04

 Cycle  10  Pass 1  IDiag  1:
 RMSU=  5.27D-07    CP:  9.79D-01  1.07D+00  5.53D-01  1.72D-01  7.21D-01
                    CP:  8.69D-01  6.44D-01  6.87D-01  7.82D-01
 E= -701.101176421190     Delta-E=       -0.000000162495 Rises=F Damp=F
 DIIS: error= 3.40D-06 at cycle  10 NSaved=  10.
 NSaved=10 IEnMin=10 EnMin= -701.101176421190     IErMin=10 ErrMin= 3.40D-06
 ErrMax= 3.40D-06  0.00D+00 EMaxC= 1.00D-01 BMatC= 1.05D-08 BMatP= 2.07D-07
 IDIUse=1 WtCom= 1.00D+00 WtEn= 0.00D+00
 Coeff-Com:  0.486D-03-0.632D-03 0.358D-03 0.347D-04-0.111D-02 0.185D-01
 Coeff-Com:  0.272D-01 0.793D-01 0.385D+00 0.491D+00
 Coeff:      0.486D-03-0.632D-03 0.358D-03 0.347D-04-0.111D-02 0.185D-01
 Coeff:      0.272D-01 0.793D-01 0.385D+00 0.491D+00
 Gap=     0.178 Goal=   None    Shift=    0.000
 RMSDP=2.31D-07 MaxDP=1.20D-05 DE=-1.62D-07 OVMax= 1.66D-05

 Cycle  11  Pass 1  IDiag  1:
 RMSU=  1.73D-07    CP:  9.79D-01  1.07D+00  5.53D-01  1.72D-01  7.21D-01
                    CP:  8.69D-01  6.44D-01  6.86D-01  7.90D-01  7.74D-01
 E= -701.101176430626     Delta-E=       -0.000000009436 Rises=F Damp=F
 DIIS: error= 8.90D-07 at cycle  11 NSaved=  11.
 NSaved=11 IEnMin=11 EnMin= -701.101176430626     IErMin=11 ErrMin= 8.90D-07
 ErrMax= 8.90D-07  0.00D+00 EMaxC= 1.00D-01 BMatC= 7.24D-10 BMatP= 1.05D-08
 IDIUse=1 WtCom= 1.00D+00 WtEn= 0.00D+00
 Coeff-Com:  0.101D-03-0.119D-03 0.560D-04 0.770D-05-0.208D-03 0.250D-02
 Coeff-Com:  0.371D-02 0.124D-01 0.873D-01 0.238D+00 0.656D+00
 Coeff:      0.101D-03-0.119D-03 0.560D-04 0.770D-05-0.208D-03 0.250D-02
 Coeff:      0.371D-02 0.124D-01 0.873D-01 0.238D+00 0.656D+00
 Gap=     0.178 Goal=   None    Shift=    0.000
 RMSDP=7.15D-08 MaxDP=2.63D-06 DE=-9.44D-09 OVMax= 3.76D-06

 Cycle  12  Pass 1  IDiag  1:
 RMSU=  4.25D-08    CP:  9.79D-01  1.07D+00  5.53D-01  1.72D-01  7.21D-01
                    CP:  8.68D-01  6.44D-01  6.87D-01  7.96D-01  7.80D-01
                    CP:  7.31D-01
 E= -701.101176431317     Delta-E=       -0.000000000692 Rises=F Damp=F
 DIIS: error= 1.56D-07 at cycle  12 NSaved=  12.
 NSaved=12 IEnMin=12 EnMin= -701.101176431317     IErMin=12 ErrMin= 1.56D-07
 ErrMax= 1.56D-07  0.00D+00 EMaxC= 1.00D-01 BMatC= 1.88D-11 BMatP= 7.24D-10
 IDIUse=1 WtCom= 1.00D+00 WtEn= 0.00D+00
 Coeff-Com:  0.223D-04-0.245D-04 0.127D-04 0.831D-06-0.318D-04 0.311D-03
 Coeff-Com:  0.489D-03 0.183D-02 0.196D-01 0.712D-01 0.249D+00 0.657D+00
 Coeff:      0.223D-04-0.245D-04 0.127D-04 0.831D-06-0.318D-04 0.311D-03
 Coeff:      0.489D-03 0.183D-02 0.196D-01 0.712D-01 0.249D+00 0.657D+00
 Gap=     0.178 Goal=   None    Shift=    0.000
 RMSDP=1.92D-08 MaxDP=1.84D-06 DE=-6.92D-10 OVMax= 7.65D-07

 Cycle  13  Pass 1  IDiag  1:
 RMSU=  1.28D-08    CP:  9.79D-01  1.07D+00  5.53D-01  1.72D-01  7.21D-01
                    CP:  8.68D-01  6.44D-01  6.87D-01  7.96D-01  7.86D-01
                    CP:  7.48D-01  7.77D-01
 E= -701.101176431330     Delta-E=       -0.000000000013 Rises=F Damp=F
 DIIS: error= 8.93D-08 at cycle  13 NSaved=  13.
 NSaved=13 IEnMin=13 EnMin= -701.101176431330     IErMin=13 ErrMin= 8.93D-08
 ErrMax= 8.93D-08  0.00D+00 EMaxC= 1.00D-01 BMatC= 3.32D-12 BMatP= 1.88D-11
 IDIUse=1 WtCom= 1.00D+00 WtEn= 0.00D+00
 Coeff-Com:  0.662D-05-0.673D-05 0.390D-05-0.263D-07-0.549D-05 0.386D-04
 Coeff-Com:  0.703D-04 0.327D-03 0.562D-02 0.235D-01 0.932D-01 0.358D+00
 Coeff-Com:  0.520D+00
 Coeff:      0.662D-05-0.673D-05 0.390D-05-0.263D-07-0.549D-05 0.386D-04
 Coeff:      0.703D-04 0.327D-03 0.562D-02 0.235D-01 0.932D-01 0.358D+00
 Coeff:      0.520D+00
 Gap=     0.178 Goal=   None    Shift=    0.000
 RMSDP=4.29D-09 MaxDP=1.94D-07 DE=-1.28D-11 OVMax= 3.09D-07

 Error on total polarization charges =  0.02082
 SCF Done:  E(RB-P86) =  -701.101176431     A.U. after   13 cycles
            NFock= 13  Conv=0.43D-08     -V/T= 2.0053
 KE= 6.974361788688D+02 PE=-3.609257313275D+03 EE= 1.220949605781D+03
 Leave Link  502 at Mon Feb 22 21:20:22 2021, MaxMem=   104857600 cpu:            1293.7 elap:              41.6
 (Enter /sw/arch/RedHatEnterpriseServer7/EB_production/2019/software/Gaussian/g16.c01/l601.exe)
 Copying SCF densities to generalized density rwf, IOpCl= 0 IROHF=0.

 **********************************************************************

            Population analysis using the SCF Density.

 **********************************************************************

 Orbital symmetries:
       Occupied  (A) (A) (A) (A) (A) (A) (A) (A) (A) (A) (A) (A)
                 (A) (A) (A) (A) (A) (A) (A) (A) (A) (A) (A) (A)
                 (A) (A) (A) (A) (A) (A) (A) (A) (A) (A) (A) (A)
                 (A) (A) (A) (A) (A) (A) (A) (A) (A) (A) (A) (A)
                 (A) (A) (A) (A) (A) (A) (A) (A) (A) (A) (A) (A)
                 (A) (A) (A) (A)
       Virtual   (A) (A) (A) (A) (A) (A) (A) (A) (A) (A) (A) (A)
                 (A) (A) (A) (A) (A) (A) (A) (A) (A) (A) (A) (A)
                 (A) (A) (A) (A) (A) (A) (A) (A) (A) (A) (A) (A)
                 (A) (A) (A) (A) (A) (A) (A) (A) (A) (A) (A) (A)
                 (A) (A) (A) (A) (A) (A) (A) (A) (A) (A) (A) (A)
                 (A) (A) (A) (A) (A) (A) (A) (A) (A) (A) (A) (A)
                 (A) (A) (A) (A) (A) (A) (A) (A) (A) (A) (A) (A)
                 (A) (A) (A) (A) (A) (A) (A) (A) (A) (A) (A) (A)
                 (A) (A) (A) (A) (A) (A) (A) (A) (A) (A) (A) (A)
                 (A) (A) (A) (A) (A) (A) (A) (A) (A) (A) (A) (A)
                 (A) (A) (A) (A) (A) (A) (A) (A) (A) (A) (A) (A)
                 (A) (A) (A) (A) (A) (A) (A) (A) (A) (A) (A) (A)
                 (A) (A) (A) (A) (A) (A) (A) (A) (A) (A) (A) (A)
                 (A) (A) (A) (A) (A) (A) (A) (A) (A) (A) (A) (A)
                 (A) (A) (A) (A) (A) (A) (A) (A) (A) (A) (A) (A)
                 (A) (A) (A) (A) (A) (A) (A) (A) (A) (A) (A) (A)
                 (A) (A) (A) (A) (A) (A) (A) (A) (A) (A) (A) (A)
                 (A) (A) (A) (A) (A) (A) (A) (A) (A) (A) (A) (A)
                 (A) (A) (A) (A) (A) (A) (A) (A) (A) (A) (A) (A)
                 (A) (A) (A) (A) (A) (A) (A) (A) (A) (A) (A) (A)
                 (A) (A) (A) (A) (A) (A) (A) (A) (A) (A) (A) (A)
                 (A) (A) (A) (A) (A) (A) (A) (A) (A) (A) (A) (A)
                 (A) (A) (A) (A) (A) (A) (A) (A) (A) (A) (A) (A)
                 (A) (A) (A) (A) (A) (A) (A) (A) (A) (A) (A) (A)
                 (A) (A) (A) (A) (A) (A) (A) (A) (A) (A) (A) (A)
                 (A) (A) (A) (A) (A) (A) (A) (A) (A) (A) (A) (A)
                 (A) (A) (A) (A) (A) (A) (A) (A) (A) (A) (A) (A)
                 (A) (A) (A) (A) (A) (A) (A) (A) (A) (A) (A) (A)
                 (A) (A) (A) (A) (A) (A) (A) (A) (A) (A) (A) (A)
                 (A) (A) (A) (A) (A) (A) (A) (A) (A) (A) (A) (A)
                 (A) (A) (A) (A) (A) (A) (A) (A) (A) (A) (A) (A)
                 (A) (A) (A) (A) (A) (A) (A) (A) (A) (A) (A) (A)
                 (A) (A) (A) (A) (A) (A) (A) (A) (A) (A) (A) (A)
                 (A) (A) (A) (A) (A) (A) (A) (A) (A) (A) (A) (A)
 The electronic state is 1-A.
 Alpha  occ. eigenvalues --  -18.82081 -18.75795 -10.03505  -9.91701  -9.90589
 Alpha  occ. eigenvalues --   -9.89531  -9.89099  -9.88937  -9.88871  -9.88824
 Alpha  occ. eigenvalues --   -9.88728  -9.88717  -9.88712  -9.88704  -9.88686
 Alpha  occ. eigenvalues --   -9.88073  -1.01559  -0.92179  -0.74417  -0.73364
 Alpha  occ. eigenvalues --   -0.72088  -0.70242  -0.67869  -0.65046  -0.61882
 Alpha  occ. eigenvalues --   -0.58944  -0.56935  -0.54522  -0.52563  -0.51988
 Alpha  occ. eigenvalues --   -0.51484  -0.51282  -0.45286  -0.44043  -0.43414
 Alpha  occ. eigenvalues --   -0.42569  -0.41971  -0.41173  -0.40072  -0.38456
 Alpha  occ. eigenvalues --   -0.38195  -0.37618  -0.36634  -0.36131  -0.35732
 Alpha  occ. eigenvalues --   -0.34518  -0.34080  -0.33591  -0.32359  -0.32084
 Alpha  occ. eigenvalues --   -0.31713  -0.30488  -0.30258  -0.29292  -0.29233
 Alpha  occ. eigenvalues --   -0.28750  -0.28655  -0.28502  -0.28382  -0.28341
 Alpha  occ. eigenvalues --   -0.28207  -0.28143  -0.25405  -0.23182
 Alpha virt. eigenvalues --   -0.05350   0.01133   0.01929   0.02534   0.03355
 Alpha virt. eigenvalues --    0.04425   0.04783   0.05002   0.05556   0.05737
 Alpha virt. eigenvalues --    0.05932   0.06966   0.07375   0.07593   0.09072
 Alpha virt. eigenvalues --    0.09573   0.09745   0.10589   0.10743   0.10978
 Alpha virt. eigenvalues --    0.11128   0.11393   0.11802   0.11964   0.12210
 Alpha virt. eigenvalues --    0.12283   0.12556   0.12917   0.13222   0.13717
 Alpha virt. eigenvalues --    0.13913   0.14228   0.14900   0.15320   0.15736
 Alpha virt. eigenvalues --    0.16227   0.17209   0.17515   0.18185   0.18312
 Alpha virt. eigenvalues --    0.18797   0.19151   0.20631   0.21917   0.22476
 Alpha virt. eigenvalues --    0.23381   0.23831   0.24486   0.24991   0.25089
 Alpha virt. eigenvalues --    0.25647   0.26201   0.26322   0.27076   0.27646
 Alpha virt. eigenvalues --    0.28076   0.28265   0.28507   0.28751   0.29450
 Alpha virt. eigenvalues --    0.30200   0.30264   0.30681   0.31143   0.32116
 Alpha virt. eigenvalues --    0.34469   0.35028   0.35240   0.35406   0.35879
 Alpha virt. eigenvalues --    0.36765   0.37538   0.37744   0.37838   0.38239
 Alpha virt. eigenvalues --    0.38688   0.39405   0.39699   0.40411   0.40563
 Alpha virt. eigenvalues --    0.41101   0.41465   0.41721   0.42001   0.42235
 Alpha virt. eigenvalues --    0.42464   0.43283   0.43452   0.43562   0.43777
 Alpha virt. eigenvalues --    0.44560   0.44920   0.45319   0.45645   0.45975
 Alpha virt. eigenvalues --    0.46249   0.46440   0.46970   0.47386   0.47627
 Alpha virt. eigenvalues --    0.47838   0.48149   0.48517   0.48678   0.49066
 Alpha virt. eigenvalues --    0.49238   0.49411   0.49841   0.50234   0.50472
 Alpha virt. eigenvalues --    0.50649   0.51892   0.53008   0.54444   0.55333
 Alpha virt. eigenvalues --    0.55734   0.57158   0.57375   0.58125   0.59083
 Alpha virt. eigenvalues --    0.60263   0.60944   0.62523   0.63605   0.64439
 Alpha virt. eigenvalues --    0.65513   0.65729   0.68343   0.70785   0.73878
 Alpha virt. eigenvalues --    0.74217   0.76106   0.76666   0.79175   0.79847
 Alpha virt. eigenvalues --    0.87479   1.05518   1.06250   1.07514   1.10441
 Alpha virt. eigenvalues --    1.12144   1.12554   1.15576   1.16884   1.17056
 Alpha virt. eigenvalues --    1.17974   1.18687   1.18765   1.18918   1.19186
 Alpha virt. eigenvalues --    1.20062   1.20975   1.21206   1.21977   1.22912
 Alpha virt. eigenvalues --    1.23533   1.23836   1.24367   1.24523   1.24757
 Alpha virt. eigenvalues --    1.24933   1.25142   1.25585   1.26671   1.28147
 Alpha virt. eigenvalues --    1.28957   1.29588   1.30356   1.30944   1.31694
 Alpha virt. eigenvalues --    1.32512   1.32601   1.33317   1.33654   1.34651
 Alpha virt. eigenvalues --    1.35149   1.35661   1.36018   1.36233   1.37017
 Alpha virt. eigenvalues --    1.37376   1.37619   1.38320   1.40444   1.41101
 Alpha virt. eigenvalues --    1.42298   1.43448   1.43972   1.44153   1.44350
 Alpha virt. eigenvalues --    1.45140   1.45439   1.46228   1.47173   1.48123
 Alpha virt. eigenvalues --    1.48426   1.48760   1.49791   1.50808   1.51556
 Alpha virt. eigenvalues --    1.52646   1.53632   1.55124   1.56370   1.57235
 Alpha virt. eigenvalues --    1.57768   1.59145   1.59191   1.59828   1.60963
 Alpha virt. eigenvalues --    1.61382   1.63759   1.64272   1.64789   1.65611
 Alpha virt. eigenvalues --    1.66162   1.67135   1.67882   1.68478   1.68603
 Alpha virt. eigenvalues --    1.70447   1.71539   1.72450   1.73579   1.73677
 Alpha virt. eigenvalues --    1.74160   1.74278   1.74542   1.75605   1.76261
 Alpha virt. eigenvalues --    1.76450   1.76719   1.77250   1.77360   1.77746
 Alpha virt. eigenvalues --    1.78166   1.78769   1.78979   1.79413   1.79825
 Alpha virt. eigenvalues --    1.80177   1.80206   1.80562   1.81152   1.81582
 Alpha virt. eigenvalues --    1.82211   1.82441   1.82572   1.82714   1.82930
[...]
    15  O    0.000000   0.000000   0.000000   0.000000   0.000000   0.000000
    16  O    0.000000   0.000000   0.000000  -0.000000   0.000000   0.000000
    17  H   -0.025319   0.008461  -0.007033   0.006195  -0.000708   0.000096
    18  H   -0.025311  -0.007034   0.008461  -0.000709   0.006193   0.000005
    19  H    0.542544  -0.002630  -0.002627  -0.000165  -0.000164   0.000007
    20  H   -0.002630   0.582993  -0.036683   0.009264  -0.007837  -0.000305
    21  H   -0.002627  -0.036683   0.582971  -0.007835   0.009261   0.005817
    22  H   -0.000165   0.009264  -0.007835   0.586105  -0.038933  -0.007390
    23  H   -0.000164  -0.007837   0.009261  -0.038933   0.586086   0.008982
    24  H    0.000007  -0.000305   0.005817  -0.007390   0.008982   0.583176
    25  H    0.000007   0.005816  -0.000301   0.008983  -0.007401  -0.038089
    26  H    0.000000   0.000170  -0.000044   0.000020   0.004920   0.008766
    27  H    0.000000  -0.000044   0.000171   0.004921   0.000025  -0.006972
    28  H    0.000000   0.000030  -0.000044   0.000206  -0.000065   0.004575
    29  H    0.000000  -0.000044   0.000030  -0.000065   0.000207   0.000164
    30  H   -0.000000   0.000001  -0.000000   0.000033  -0.000051  -0.000073
    31  H   -0.000000  -0.000000   0.000001  -0.000051   0.000033   0.000219
    32  H    0.000000   0.000000  -0.000000   0.000001  -0.000001  -0.000053
    33  H    0.000000  -0.000000   0.000000  -0.000001   0.000001   0.000033
    34  H   -0.000000  -0.000000   0.000000  -0.000000   0.000000   0.000001
    35  H   -0.000000   0.000000  -0.000000   0.000000  -0.000000  -0.000001
    36  H    0.000000  -0.000000   0.000000   0.000000  -0.000000  -0.000000
    37  H    0.000000   0.000000  -0.000000  -0.000000   0.000000   0.000000
    38  H   -0.000000  -0.000000   0.000000  -0.000000   0.000000  -0.000000
    39  H   -0.000000   0.000000  -0.000000   0.000000  -0.000000   0.000000
    40  H    0.000000  -0.000000   0.000000  -0.000000   0.000000   0.000000
    41  H    0.000000   0.000000  -0.000000   0.000000  -0.000000  -0.000000
    42  H    0.000000  -0.000000   0.000000  -0.000000   0.000000   0.000000
    43  H    0.000000   0.000000  -0.000000   0.000000  -0.000000  -0.000000
    44  H    0.000000   0.000000   0.000000  -0.000000  -0.000000   0.000000
              25         26         27         28         29         30
     1  C   -0.000215  -0.000006  -0.000007  -0.000001  -0.000001   0.000000
     2  C   -0.005082  -0.000265  -0.000277  -0.000007  -0.000008  -0.000001
     3  C   -0.044457  -0.004613  -0.004650  -0.000273  -0.000285  -0.000012
     4  C    0.417721  -0.045915  -0.046149  -0.004296  -0.004436  -0.000269
     5  C   -0.045743   0.419237   0.419466  -0.046244  -0.046106  -0.004365
     6  C   -0.004573  -0.046106  -0.046215   0.419741   0.419331  -0.045878
     7  C   -0.000266  -0.004464  -0.004324  -0.046374  -0.045956   0.418996
     8  C   -0.000019  -0.000283  -0.000271  -0.004419  -0.004411  -0.045635
     9  C   -0.000001  -0.000017  -0.000016  -0.000290  -0.000262  -0.004685
    10  C    0.000000  -0.000001  -0.000001  -0.000015  -0.000016  -0.000212
    11  C   -0.000000   0.000000   0.000000  -0.000001  -0.000001  -0.000022
    12  C    0.000000  -0.000000  -0.000000   0.000000   0.000000   0.000000
    13  C   -0.000000   0.000000  -0.000000  -0.000000  -0.000000   0.000000
    14  C    0.000000   0.000000  -0.000000   0.000000  -0.000000   0.000000
    15  O    0.000000   0.000000   0.000000   0.000000  -0.000000   0.000000
    16  O    0.000000   0.000000  -0.000000  -0.000000   0.000000  -0.000000
    17  H    0.000005   0.000019  -0.000027   0.000001  -0.000000   0.000000
    18  H    0.000097  -0.000027   0.000019  -0.000000   0.000001  -0.000000
    19  H    0.000007   0.000000   0.000000   0.000000   0.000000  -0.000000
    20  H    0.005816   0.000170  -0.000044   0.000030  -0.000044   0.000001
    21  H   -0.000301  -0.000044   0.000171  -0.000044   0.000030  -0.000000
    22  H    0.008983   0.000020   0.004921   0.000206  -0.000065   0.000033
    23  H   -0.007401   0.004920   0.000025  -0.000065   0.000207  -0.000051
    24  H   -0.038089   0.008766  -0.006972   0.004575   0.000164  -0.000073
    25  H    0.583222  -0.006965   0.008769   0.000156   0.004572   0.000217
    26  H   -0.006965   0.580988  -0.037359   0.008643  -0.006731   0.004426
    27  H    0.008769  -0.037359   0.580989  -0.006703   0.008642   0.000224
    28  H    0.000156   0.008643  -0.006703   0.579913  -0.036923   0.008591
    29  H    0.004572  -0.006731   0.008642  -0.036923   0.579947  -0.006637
    30  H    0.000217   0.004426   0.000224   0.008591  -0.006637   0.579591
    31  H   -0.000073   0.000230   0.004423  -0.006643   0.008593  -0.036839
    32  H    0.000034  -0.000074   0.000220   0.004397   0.000230   0.008579
    33  H   -0.000053   0.000222  -0.000074   0.000242   0.004390  -0.006666
    34  H   -0.000001   0.000033  -0.000053   0.000222  -0.000074   0.000241
    35  H    0.000001  -0.000053   0.000034  -0.000074   0.000218   0.004392
    36  H    0.000000  -0.000001   0.000001  -0.000053   0.000033  -0.000074
    37  H   -0.000000   0.000001  -0.000001   0.000033  -0.000052   0.000219
    38  H    0.000000  -0.000000   0.000000  -0.000000   0.000001  -0.000051
    39  H   -0.000000   0.000000  -0.000000   0.000001  -0.000000   0.000033
    40  H   -0.000000  -0.000000   0.000000  -0.000000   0.000000  -0.000000
    41  H    0.000000   0.000000   0.000000   0.000000  -0.000000   0.000001
    42  H   -0.000000   0.000000  -0.000000  -0.000000   0.000000  -0.000000
    43  H    0.000000  -0.000000   0.000000   0.000000  -0.000000   0.000000
    44  H    0.000000  -0.000000  -0.000000   0.000000   0.000000  -0.000000
              31         32         33         34         35         36
     1  C    0.000000  -0.000000  -0.000000   0.000000   0.000000  -0.000000
     2  C   -0.000001   0.000000   0.000000  -0.000000  -0.000000   0.000000
     3  C   -0.000012  -0.000001  -0.000001   0.000000   0.000000  -0.000000
     4  C   -0.000295  -0.000012  -0.000012  -0.000001  -0.000001   0.000000
     5  C   -0.004353  -0.000279  -0.000282  -0.000011  -0.000016  -0.000001
     6  C   -0.046311  -0.004211  -0.004411  -0.000302  -0.000261  -0.000013
     7  C    0.419753  -0.046261  -0.045492  -0.004051  -0.004649  -0.000213
     8  C   -0.046068   0.419817   0.418568  -0.046332  -0.044720  -0.004065
     9  C   -0.004457  -0.046251  -0.044751   0.421083   0.416534  -0.044958
    10  C   -0.000247  -0.004402  -0.005167  -0.046408  -0.042633   0.419858
    11  C   -0.000025  -0.000269  -0.000140  -0.004491  -0.006089  -0.045151
    12  C   -0.000001   0.000002  -0.000052  -0.000386   0.000181  -0.004914
    13  C   -0.000000  -0.000000  -0.000000  -0.000008  -0.000017  -0.000268
    14  C   -0.000000   0.000000  -0.000000  -0.000003   0.000006  -0.000034
    15  O    0.000000   0.000000   0.000000   0.000000   0.000000   0.000002
    16  O    0.000000  -0.000000   0.000000   0.000000  -0.000000  -0.000031
    17  H   -0.000000   0.000000  -0.000000  -0.000000   0.000000  -0.000000
    18  H    0.000000  -0.000000   0.000000   0.000000  -0.000000   0.000000
    19  H   -0.000000   0.000000   0.000000  -0.000000  -0.000000   0.000000
    20  H   -0.000000   0.000000  -0.000000  -0.000000   0.000000  -0.000000
    21  H    0.000001  -0.000000   0.000000   0.000000  -0.000000   0.000000
    22  H   -0.000051   0.000001  -0.000001  -0.000000   0.000000   0.000000
    23  H    0.000033  -0.000001   0.000001   0.000000  -0.000000  -0.000000
    24  H    0.000219  -0.000053   0.000033   0.000001  -0.000001  -0.000000
    25  H   -0.000073   0.000034  -0.000053  -0.000001   0.000001   0.000000
    26  H    0.000230  -0.000074   0.000222   0.000033  -0.000053  -0.000001
    27  H    0.004423   0.000220  -0.000074  -0.000053   0.000034   0.000001
    28  H   -0.006643   0.004397   0.000242   0.000222  -0.000074  -0.000053
    29  H    0.008593   0.000230   0.004390  -0.000074   0.000218   0.000033
    30  H   -0.036839   0.008579  -0.006666   0.000241   0.004392  -0.000074
    31  H    0.579501  -0.006608   0.008567   0.004355   0.000237   0.000218
    32  H   -0.006608   0.578945  -0.036723  -0.006567   0.008513   0.004263
    33  H    0.008567  -0.036723   0.578990   0.008499  -0.006603   0.000264
    34  H    0.004355  -0.006567   0.008499   0.576931  -0.036377  -0.006427
    35  H    0.000237   0.008513  -0.006603  -0.036377   0.577634   0.008362
    36  H    0.000218   0.004263   0.000264  -0.006427   0.008362   0.574394
    37  H   -0.000075   0.000269   0.004268   0.008353  -0.006584  -0.036296
    38  H    0.000033  -0.000073   0.000216   0.000243   0.004134   0.008200
    39  H   -0.000052   0.000224  -0.000078   0.004021   0.000352  -0.006469
    40  H    0.000001  -0.000050   0.000033   0.000226  -0.000078   0.003137
    41  H   -0.000000   0.000033  -0.000051  -0.000080   0.000247   0.000611
    42  H    0.000000  -0.000000   0.000001   0.000031  -0.000041  -0.000087
    43  H   -0.000000   0.000001  -0.000000  -0.000042   0.000033   0.000200
    44  H   -0.000000   0.000000   0.000000  -0.000000  -0.000000   0.000000
              37         38         39         40         41         42
     1  C   -0.000000   0.000000   0.000000  -0.000000  -0.000000   0.000000
     2  C    0.000000  -0.000000  -0.000000  -0.000000  -0.000000  -0.000000
     3  C   -0.000000   0.000000   0.000000  -0.000000  -0.000000  -0.000000
     4  C    0.000000  -0.000000  -0.000000  -0.000000  -0.000000  -0.000000
     5  C   -0.000001   0.000000  -0.000000  -0.000000  -0.000000  -0.000000
     6  C   -0.000016  -0.000001  -0.000001  -0.000000  -0.000000   0.000000
     7  C   -0.000168  -0.000003  -0.000038  -0.000000  -0.000004  -0.000000
     8  C   -0.004594  -0.000246  -0.000196  -0.000030  -0.000033   0.000004
     9  C   -0.042245  -0.003107  -0.005204  -0.000165  -0.000922  -0.000139
    10  C    0.415582  -0.044152  -0.042521  -0.002884  -0.003991   0.000751
    11  C   -0.040570   0.421848   0.415434  -0.039706  -0.053124  -0.005441
    12  C   -0.006907  -0.045690  -0.039581   0.418526   0.416374  -0.028495
    13  C   -0.000331  -0.004156  -0.005690  -0.043967  -0.049215   0.412993
    14  C   -0.000089  -0.001132   0.000687  -0.006966   0.011368  -0.050495
    15  O   -0.000010   0.000014   0.000013   0.000431   0.004989   0.005441
    16  O    0.000006  -0.000032   0.000136   0.006708   0.000180   0.005174
    17  H    0.000000  -0.000000   0.000000  -0.000000   0.000000  -0.000000
    18  H   -0.000000   0.000000  -0.000000   0.000000  -0.000000   0.000000
    19  H    0.000000  -0.000000  -0.000000   0.000000   0.000000   0.000000
    20  H    0.000000  -0.000000   0.000000  -0.000000   0.000000  -0.000000
    21  H   -0.000000   0.000000  -0.000000   0.000000  -0.000000   0.000000
    22  H   -0.000000  -0.000000   0.000000  -0.000000   0.000000  -0.000000
    23  H    0.000000   0.000000  -0.000000   0.000000  -0.000000   0.000000
    24  H    0.000000  -0.000000   0.000000   0.000000  -0.000000   0.000000
    25  H   -0.000000   0.000000  -0.000000  -0.000000   0.000000  -0.000000
    26  H    0.000001  -0.000000   0.000000  -0.000000   0.000000   0.000000
    27  H   -0.000001   0.000000  -0.000000   0.000000   0.000000  -0.000000
    28  H    0.000033  -0.000000   0.000001  -0.000000   0.000000  -0.000000
    29  H   -0.000052   0.000001  -0.000000   0.000000  -0.000000   0.000000
    30  H    0.000219  -0.000051   0.000033  -0.000000   0.000001  -0.000000
    31  H   -0.000075   0.000033  -0.000052   0.000001  -0.000000   0.000000
    32  H    0.000269  -0.000073   0.000224  -0.000050   0.000033  -0.000000
    33  H    0.004268   0.000216  -0.000078   0.000033  -0.000051   0.000001
    34  H    0.008353   0.000243   0.004021   0.000226  -0.000080   0.000031
    35  H   -0.006584   0.004134   0.000352  -0.000078   0.000247  -0.000041
    36  H   -0.036296   0.008200  -0.006469   0.003137   0.000611  -0.000087
    37  H    0.575013  -0.006644   0.008157   0.000433   0.002958   0.000185
    38  H   -0.006644   0.565880  -0.034931   0.006920  -0.004512   0.002711
    39  H    0.008157  -0.034931   0.566174  -0.004878   0.006981   0.000551
    40  H    0.000433   0.006920  -0.004878   0.536633  -0.026102   0.006229
    41  H    0.002958  -0.004512   0.006981  -0.026102   0.548165  -0.003462
    42  H    0.000185   0.002711   0.000551   0.006229  -0.003462   0.509191
    43  H   -0.000089   0.000521   0.003706  -0.003805   0.007381  -0.018728
    44  H    0.000000   0.000000  -0.000003  -0.000396  -0.000143  -0.000664
              43         44
     1  C   -0.000000   0.000000
     2  C   -0.000000  -0.000000
     3  C   -0.000000   0.000000
     4  C   -0.000000  -0.000000
     5  C   -0.000000   0.000000
     6  C    0.000000  -0.000000
     7  C   -0.000000   0.000000
     8  C    0.000002  -0.000000
     9  C   -0.000246   0.000000
    10  C    0.000419  -0.000008
    11  C   -0.016697   0.000147
    12  C   -0.029913   0.000284
    13  C    0.358855   0.014124
    14  C    0.000954  -0.016632
    15  O    0.004602   0.002219
    16  O    0.005009   0.283530
    17  H    0.000000   0.000000
    18  H   -0.000000   0.000000
    19  H    0.000000   0.000000
    20  H    0.000000   0.000000
    21  H   -0.000000   0.000000
    22  H    0.000000  -0.000000
    23  H   -0.000000  -0.000000
    24  H   -0.000000   0.000000
    25  H    0.000000   0.000000
    26  H   -0.000000  -0.000000
    27  H    0.000000  -0.000000
    28  H    0.000000   0.000000
    29  H   -0.000000   0.000000
    30  H    0.000000  -0.000000
    31  H   -0.000000  -0.000000
    32  H    0.000001   0.000000
    33  H   -0.000000   0.000000
    34  H   -0.000042  -0.000000
    35  H    0.000033  -0.000000
    36  H    0.000200   0.000000
    37  H   -0.000089   0.000000
    38  H    0.000521   0.000000
    39  H    0.003706  -0.000003
    40  H   -0.003805  -0.000396
    41  H    0.007381  -0.000143
    42  H   -0.018728  -0.000664
    43  H    0.522520  -0.000411
    44  H   -0.000411   0.388434
 Mulliken charges:
               1
     1  C   -0.418554
     2  C   -0.227864
     3  C   -0.259918
     4  C   -0.243448
     5  C   -0.253086
     6  C   -0.251498
     7  C   -0.252512
     8  C   -0.251766
     9  C   -0.253930
    10  C   -0.250609
    11  C   -0.251026
    12  C   -0.280881
    13  C   -0.260786
    14  C    0.211251
    15  O   -0.366220
    16  O   -0.281439
    17  H    0.131687
    18  H    0.131674
    19  H    0.144447
    20  H    0.126648
    21  H    0.126658
    22  H    0.122687
    23  H    0.122699
    24  H    0.123663
    25  H    0.123639
    26  H    0.125250
    27  H    0.125242
    28  H    0.125676
    29  H    0.125652
    30  H    0.125927
    31  H    0.125947
    32  H    0.126308
    33  H    0.126265
    34  H    0.127372
    35  H    0.127319
    36  H    0.129512
    37  H    0.129196
    38  H    0.134012
    39  H    0.133169
    40  H    0.149750
    41  H    0.142351
    42  H    0.164292
    43  H    0.165728
    44  H    0.329517
 Sum of Mulliken charges =  -0.00000
 Mulliken charges with hydrogens summed into heavy atoms:
               1
     1  C   -0.010745
     2  C    0.025441
     3  C   -0.014532
     4  C    0.003854
     5  C   -0.002594
     6  C   -0.000170
     7  C   -0.000638
     8  C    0.000807
     9  C    0.000761
    10  C    0.008099
    11  C    0.016155
    12  C    0.011220
    13  C    0.069233
    14  C    0.211251
    15  O   -0.366220
    16  O    0.048078
 Electronic spatial extent (au):  <R**2>=          15364.5593
 Charge=             -0.0000 electrons
 Dipole moment (field-independent basis, Debye):
    X=              1.5481    Y=              0.4795    Z=             -1.9010  Tot=              2.4980
 Quadrupole moment (field-independent basis, Debye-Ang):
   XX=           -125.1588   YY=           -103.2234   ZZ=           -107.7789
   XY=             -5.9019   XZ=             16.9255   YZ=             -0.4141
 Traceless Quadrupole moment (field-independent basis, Debye-Ang):
   XX=            -13.1051   YY=              8.8303   ZZ=              4.2748
   XY=             -5.9019   XZ=             16.9255   YZ=             -0.4141
 Octapole moment (field-independent basis, Debye-Ang**2):
  XXX=             56.4203  YYY=              6.9734  ZZZ=             -3.8780  XYY=            -50.6586
  XXY=             81.7058  XXZ=           -143.8677  XZZ=             15.6946  YZZ=             -0.2538
  YYZ=             -0.6855  XYZ=             -4.5221
 Hexadecapole moment (field-independent basis, Debye-Ang**3):
 XXXX=         -21441.2828 YYYY=           -372.2870 ZZZZ=           -297.2295 XXXY=           -714.0120
 XXXZ=           1297.8504 YYYX=            -61.8362 YYYZ=            -16.4293 ZZZX=             26.5289
 ZZZY=              2.6509 XXYY=          -3214.9765 XXZZ=          -3642.0207 YYZZ=           -108.1485
 XXYZ=            -19.3936 YYXZ=             11.5817 ZZXY=             -4.3172
 N-N= 9.947984959654D+02 E-N=-3.619127292348D+03  KE= 6.974094203549D+02
 Unable to Open any file for archive entry.
 1\1\GINC-TCN1682\SP\RBP86\TZVP\C14H28O2\ELENAA\22-Feb-2021\0\\# BP86/T
 ZVP SCRF=COSMORS geom=CHECKPOINT guess=CHECKPOINT\\COSMO-file for #TUN
 FSRHWOTWDNC-UHFFFAOYSA-N\\0,1\C,0,2.5380805803,7.6118157354,9.87184426
 08\C,0,2.7963302565,6.6006866725,8.7478222807\C,0,1.9306306831,6.84961
 31086,7.5051530703\C,0,2.178765346,5.8450107954,6.372490731\C,0,1.3119
 686326,6.0948282868,5.1313811688\C,0,1.5604294901,5.0906728067,3.99826
 0062\C,0,0.6921062394,5.339814838,2.7581331527\C,0,0.9411705308,4.3363
 019018,1.6246097198\C,0,0.0701900343,4.5845442594,0.3862061629\C,0,0.3
 205843892,3.5809578367,-0.7470684471\C,0,-0.5552687496,3.8299883612,-1
 .9818776275\C,0,-0.2985748102,2.8228371557,-3.1094652889\C,0,-1.191858
 2555,3.0891320497,-4.3429420547\C,0,-0.8938932576,2.1082502448,-5.4500
 444583\O,0,-0.165694223,2.3164450557,-6.409842388\O,0,-1.5031253283,0.
 9048660012,-5.2404644269\H,0,1.4862418338,7.5779045825,10.1993398287\H
 ,0,2.7470519182,8.6398157663,9.5337657924\H,0,3.1698372282,7.412910621
 ,10.7513286514\H,0,3.8618055754,6.631646256,8.4581105048\H,0,2.6098079
 763,5.5771998783,9.1190439086\H,0,0.8635807521,6.8185958391,7.79337790
 32\H,0,2.1163340748,7.8737401041,7.1319410606\H,0,1.9934290197,4.82117
 64656,6.7462793397\H,0,3.2456499567,5.8767867121,6.0842815152\H,0,1.49
 6783304,7.1188063084,4.7578098693\H,0,0.2451022517,6.0624748477,5.4195
 080126\H,0,1.3766881637,4.0665733922,4.3720294281\H,0,2.6270009876,5.1
 238704156,3.7091644974\H,0,0.8750967529,6.3641664705,2.3847350253\H,0,
 -0.3744237835,5.3057047166,3.0472490376\H,0,0.7598388907,3.3118069435,
 1.9983125656\H,0,2.0071540824,4.3718031135,1.3338461639\H,0,-0.9957102
 436,4.5477978187,0.6768057754\H,0,0.2507784837,5.6090453907,0.01245545
 89\H,0,0.1418481603,2.5562930205,-0.3734057226\H,0,1.3854066954,3.6198
 494972,-1.0405864802\H,0,-0.3771593423,4.8534189652,-2.3578812144\H,0,
 -1.6202790436,3.7877766766,-1.6909087593\H,0,-0.482158036,1.7994158347
 ,-2.742717975\H,0,0.7611857878,2.8686340197,-3.4128894189\H,0,-1.00765
 66591,4.1001463481,-4.731833772\H,0,-2.2513656869,3.0090400764,-4.0555
 447309\H,0,-1.2266206587,0.3037148096,-5.965552183\\Version=ES64L-G16R
 evC.01\State=1-A\HF=-701.078916\RMSD=3.229e-09\Dipole=-0.4392253,-0.23
 08732,0.8483421\Quadrupole=6.9963343,9.9587866,-16.9551209,2.766455,4.
 9309188,1.4126409\PG=C01 [X(C14H28O2)]\\@
 The archive entry for this job was punched.


 EVERY WORD THAT YOU WRITE IS A BLOW THAT SMITES THE DEVIL.
     -- ST. BERNARD OF CLAIRVAUX
 Job cpu time:       0 days  0 hours 17 minutes  0.9 seconds.
 Elapsed time:       0 days  0 hours  0 minutes 33.3 seconds.
 File lengths (MBytes):  RWF=    186 Int=      0 D2E=      0 Chk=     24 Scr=      1
 Normal termination of Gaussian 16 at Mon Feb 22 21:35:45 2021.
