 Entering Gaussian System, Link 0=g16
 Input=TZVAOIBSPKDYDC-UHFFFAOYSA-M.gjf
 Output=TZVAOIBSPKDYDC-UHFFFAOYSA-M.log
 Initial command:
 /sw/arch/RedHatEnterpriseServer7/EB_production/2020/software/Gaussian/g16.c01/l1.exe "/scratch-local/elenaa.10684707/Gau-9576.inp" -scrdir="/scratch-local/elenaa.10684707/"
 Entering Link 1 = /sw/arch/RedHatEnterpriseServer7/EB_production/2020/software/Gaussian/g16.c01/l1.exe PID=      9578.
  
 Copyright (c) 1988-2019, Gaussian, Inc.  All Rights Reserved.
  
 This is part of the Gaussian(R) 16 program.  It is based on
 the Gaussian(R) 09 system (copyright 2009, Gaussian, Inc.),
 the Gaussian(R) 03 system (copyright 2003, Gaussian, Inc.),
 the Gaussian(R) 98 system (copyright 1998, Gaussian, Inc.),
 the Gaussian(R) 94 system (copyright 1995, Gaussian, Inc.),
 the Gaussian 92(TM) system (copyright 1992, Gaussian, Inc.),
 the Gaussian 90(TM) system (copyright 1990, Gaussian, Inc.),
 the Gaussian 88(TM) system (copyright 1988, Gaussian, Inc.),
 the Gaussian 86(TM) system (copyright 1986, Carnegie Mellon
 University), and the Gaussian 82(TM) system (copyright 1983,
 Carnegie Mellon University). Gaussian is a federally registered
 trademark of Gaussian, Inc.
  
 This software contains proprietary and confidential information,
 including trade secrets, belonging to Gaussian, Inc.
  
 This software is provided under written license and may be
 used, copied, transmitted, or stored only in accord with that
 written license.
  
 The following legend is applicable only to US Government
 contracts under FAR:
  
                    RESTRICTED RIGHTS LEGEND
  
 Use, reproduction and disclosure by the US Government is
 subject to restrictions as set forth in subparagraphs (a)
 and (c) of the Commercial Computer Software - Restricted
 Rights clause in FAR 52.227-19.
  
 Gaussian, Inc.
 340 Quinnipiac St., Bldg. 40, Wallingford CT 06492
  
  
 ---------------------------------------------------------------
 Warning -- This program may not be used in any manner that
 competes with the business of Gaussian, Inc. or will provide
 assistance to any competitor of Gaussian, Inc.  The licensee
 of this program is prohibited from giving any competitor of
 Gaussian, Inc. access to this program.  By using this program,
 the user acknowledges that Gaussian, Inc. is engaged in the
 business of creating and licensing software in the field of
 computational chemistry and represents and warrants to the
 licensee that it is not a competitor of Gaussian, Inc. and that
 it will not use this program in any manner prohibited above.
 ---------------------------------------------------------------
  

 Cite this work as:
 Gaussian 16, Revision C.01,
 M. J. Frisch, G. W. Trucks, H. B. Schlegel, G. E. Scuseria, 
 M. A. Robb, J. R. Cheeseman, G. Scalmani, V. Barone, 
 G. A. Petersson, H. Nakatsuji, X. Li, M. Caricato, A. V. Marenich, 
 J. Bloino, B. G. Janesko, R. Gomperts, B. Mennucci, H. P. Hratchian, 
 J. V. Ortiz, A. F. Izmaylov, J. L. Sonnenberg, D. Williams-Young, 
 F. Ding, F. Lipparini, F. Egidi, J. Goings, B. Peng, A. Petrone, 
 T. Henderson, D. Ranasinghe, V. G. Zakrzewski, J. Gao, N. Rega, 
 G. Zheng, W. Liang, M. Hada, M. Ehara, K. Toyota, R. Fukuda, 
 J. Hasegawa, M. Ishida, T. Nakajima, Y. Honda, O. Kitao, H. Nakai, 
 T. Vreven, K. Throssell, J. A. Montgomery, Jr., J. E. Peralta, 
 F. Ogliaro, M. J. Bearpark, J. J. Heyd, E. N. Brothers, K. N. Kudin, 
 V. N. Staroverov, T. A. Keith, R. Kobayashi, J. Normand, 
 K. Raghavachari, A. P. Rendell, J. C. Burant, S. S. Iyengar, 
 J. Tomasi, M. Cossi, J. M. Millam, M. Klene, C. Adamo, R. Cammi, 
 J. W. Ochterski, R. L. Martin, K. Morokuma, O. Farkas, 
 J. B. Foresman, and D. J. Fox, Gaussian, Inc., Wallingford CT, 2019.
 
 ******************************************
 Gaussian 16:  ES64L-G16RevC.01  3-Jul-2019
                21-Aug-2021 
 ******************************************
 %chk=TZVAOIBSPKDYDC-UHFFFAOYSA-M.chk
 %NProcShared=24
 Will use up to   24 processors via shared memory.
 -------------------------------------------------------------
 #P BP86/TZVP EmpiricalDispersion=GD3 SCRF=(Solvent=Water) Opt
 -------------------------------------------------------------
 1/18=20,19=15,26=3,38=1/1,3;
 2/9=110,12=2,17=6,18=5,40=1/2;
 3/5=19,7=101,11=2,25=1,30=1,70=2201,71=1,72=1,74=404,124=31/1,2,3;
 4//1;
 5/5=2,38=5,53=1/2;
 6/7=2,8=2,9=2,10=2,28=1/1;
 7//1,2,3,16;
 1/18=20,19=15,26=3/3(2);
 2/9=110/2;
 99//99;
 2/9=110/2;
 3/5=19,7=101,11=2,25=1,30=1,70=2205,71=1,72=1,74=404,124=31/1,2,3;
 4/5=5,16=3,69=1/1;
 5/5=2,38=5,53=1/2;
 7//1,2,3,16;
 1/18=20,19=15,26=3/3(-5);
 2/9=110/2;
 6/7=2,8=2,9=2,10=2,19=2,28=1/1;
 99/9=1/99;
 Leave Link    1 at Sat Aug 21 09:33:12 2021, MaxMem=           0 cpu:               1.9 elap:               0.1
 (Enter /sw/arch/RedHatEnterpriseServer7/EB_production/2020/software/Gaussian/g16.c01/l101.exe)
 -------------------------------------
 Particle #TZVAOIBSPKDYDC-UHFFFAOYSA-M
 -------------------------------------
 Symbolic Z-matrix:
 Charge =  0 Multiplicity = 1
 C                     0.07803  -2.14604  -0.3906 
 N                    -0.9607   -2.42165   0.633 
 C                    -0.28634  -3.01949   1.80845 
 C                    -1.91272  -3.42954   0.09962 
 C                    -1.67406  -1.16787   1.02222 
 C                    -2.31768  -0.36035  -0.13357 
 O                    -1.34623   0.39343  -0.86157 
 C                    -0.69437   1.5503   -0.40369 
 C                     0.33216   2.08454  -1.19337 
 C                     1.01693   3.23354  -0.7864 
 C                     0.6785    3.86093   0.41481 
 C                    -0.34607   3.34067   1.20925 
 C                    -1.03375   2.19172   0.80539 
 Cl                    0.82502  -5.56018  -0.34132 
 H                     0.76109  -1.3334   -0.05574 
 H                    -0.37263  -1.85185  -1.36281 
 H                     0.69471  -3.05021  -0.59555 
 H                     0.29205  -3.92867   1.52662 
 H                    -1.02765  -3.34459   2.57018 
 H                     0.43585  -2.30544   2.26254 
 H                    -1.41197  -4.41191  -0.05669 
 H                    -2.76219  -3.58938   0.80052 
 H                    -2.32488  -3.13464  -0.88749 
 H                    -0.97216  -0.48875   1.5507 
 H                    -2.49545  -1.41598   1.73018 
 H                    -2.8552   -1.0212   -0.83809 
 H                    -3.09115   0.32551   0.27277 
 H                     0.60226   1.60373  -2.12508 
 H                     1.81013   3.63708  -1.4024 
 H                     1.20912   4.75027   0.72942 
 H                    -0.60855   3.82866   2.13909 
 H                    -1.82291   1.81552   1.44045 
 
 Add virtual bond connecting atoms H17        and Cl14       Dist= 4.77D+00.
 Add virtual bond connecting atoms H18        and Cl14       Dist= 4.79D+00.
 Add virtual bond connecting atoms H21        and Cl14       Dist= 4.78D+00.
 ITRead=  0  0  0  0  0  0  0  0  0  0  0  0  0  0  0  0  0  0  0  0
 ITRead=  0  0  0  0  0  0  0  0  0  0  0  0
 MicOpt= -1 -1 -1 -1 -1 -1 -1 -1 -1 -1 -1 -1 -1 -1 -1 -1 -1 -1 -1 -1
 MicOpt= -1 -1 -1 -1 -1 -1 -1 -1 -1 -1 -1 -1
 NAtoms=     32 NQM=       32 NQMF=       0 NMMI=      0 NMMIF=      0
                NMic=       0 NMicF=      0.
                    Isotopes and Nuclear Properties:
 (Nuclear quadrupole moments (NQMom) in fm**2, nuclear magnetic moments (NMagM)
  in nuclear magnetons)

  Atom         1           2           3           4           5           6           7           8           9          10
 IAtWgt=          12          14          12          12          12          12          16          12          12          12
 AtmWgt=  12.0000000  14.0030740  12.0000000  12.0000000  12.0000000  12.0000000  15.9949146  12.0000000  12.0000000  12.0000000
 NucSpn=           0           2           0           0           0           0           0           0           0           0
 AtZEff=  -0.0000000  -0.0000000  -0.0000000  -0.0000000  -0.0000000  -0.0000000  -0.0000000  -0.0000000  -0.0000000  -0.0000000
 NQMom=    0.0000000   2.0440000   0.0000000   0.0000000   0.0000000   0.0000000   0.0000000   0.0000000   0.0000000   0.0000000
 NMagM=    0.0000000   0.4037610   0.0000000   0.0000000   0.0000000   0.0000000   0.0000000   0.0000000   0.0000000   0.0000000
 AtZNuc=   6.0000000   7.0000000   6.0000000   6.0000000   6.0000000   6.0000000   8.0000000   6.0000000   6.0000000   6.0000000

  Atom        11          12          13          14          15          16          17          18          19          20
 IAtWgt=          12          12          12          35           1           1           1           1           1           1
 AtmWgt=  12.0000000  12.0000000  12.0000000  34.9688527   1.0078250   1.0078250   1.0078250   1.0078250   1.0078250   1.0078250
 NucSpn=           0           0           0           3           1           1           1           1           1           1
 AtZEff=  -0.0000000  -0.0000000  -0.0000000  -0.0000000  -0.0000000  -0.0000000  -0.0000000  -0.0000000  -0.0000000  -0.0000000
 NQMom=    0.0000000   0.0000000   0.0000000  -8.1650000   0.0000000   0.0000000   0.0000000   0.0000000   0.0000000   0.0000000
 NMagM=    0.0000000   0.0000000   0.0000000   0.8218740   2.7928460   2.7928460   2.7928460   2.7928460   2.7928460   2.7928460
 AtZNuc=   6.0000000   6.0000000   6.0000000  17.0000000   1.0000000   1.0000000   1.0000000   1.0000000   1.0000000   1.0000000

  Atom        21          22          23          24          25          26          27          28          29          30
 IAtWgt=           1           1           1           1           1           1           1           1           1           1
 AtmWgt=   1.0078250   1.0078250   1.0078250   1.0078250   1.0078250   1.0078250   1.0078250   1.0078250   1.0078250   1.0078250
 NucSpn=           1           1           1           1           1           1           1           1           1           1
 AtZEff=  -0.0000000  -0.0000000  -0.0000000  -0.0000000  -0.0000000  -0.0000000  -0.0000000  -0.0000000  -0.0000000  -0.0000000
 NQMom=    0.0000000   0.0000000   0.0000000   0.0000000   0.0000000   0.0000000   0.0000000   0.0000000   0.0000000   0.0000000
 NMagM=    2.7928460   2.7928460   2.7928460   2.7928460   2.7928460   2.7928460   2.7928460   2.7928460   2.7928460   2.7928460
 AtZNuc=   1.0000000   1.0000000   1.0000000   1.0000000   1.0000000   1.0000000   1.0000000   1.0000000   1.0000000   1.0000000

  Atom        31          32
 IAtWgt=           1           1
 AtmWgt=   1.0078250   1.0078250
 NucSpn=           1           1
 AtZEff=  -0.0000000  -0.0000000
 NQMom=    0.0000000   0.0000000
 NMagM=    2.7928460   2.7928460
 AtZNuc=   1.0000000   1.0000000
 Leave Link  101 at Sat Aug 21 09:33:12 2021, MaxMem=   104857600 cpu:               3.1 elap:               0.2
 (Enter /sw/arch/RedHatEnterpriseServer7/EB_production/2020/software/Gaussian/g16.c01/l103.exe)

 GradGradGradGradGradGradGradGradGradGradGradGradGradGradGradGradGradGrad
 Berny optimization.
 Initialization pass.
                           ----------------------------
                           !    Initial Parameters    !
                           ! (Angstroms and Degrees)  !
 --------------------------                            --------------------------
 ! Name  Definition              Value          Derivative Info.                !
 --------------------------------------------------------------------------------
 ! R1    R(1,2)                  1.4841         estimate D2E/DX2                !
 ! R2    R(1,15)                 1.1131         estimate D2E/DX2                !
 ! R3    R(1,16)                 1.1112         estimate D2E/DX2                !
 ! R4    R(1,17)                 1.1135         estimate D2E/DX2                !
 ! R5    R(2,3)                  1.4812         estimate D2E/DX2                !
 ! R6    R(2,4)                  1.4855         estimate D2E/DX2                !
 ! R7    R(2,5)                  1.4941         estimate D2E/DX2                !
 ! R8    R(3,18)                 1.1138         estimate D2E/DX2                !
 ! R9    R(3,19)                 1.1115         estimate D2E/DX2                !
 ! R10   R(3,20)                 1.1125         estimate D2E/DX2                !
 ! R11   R(4,21)                 1.1137         estimate D2E/DX2                !
 ! R12   R(4,22)                 1.1128         estimate D2E/DX2                !
 ! R13   R(4,23)                 1.1096         estimate D2E/DX2                !
 ! R14   R(5,6)                  1.5499         estimate D2E/DX2                !
 ! R15   R(5,24)                 1.1105         estimate D2E/DX2                !
 ! R16   R(5,25)                 1.1124         estimate D2E/DX2                !
 ! R17   R(6,7)                  1.4289         estimate D2E/DX2                !
 ! R18   R(6,26)                 1.1054         estimate D2E/DX2                !
 ! R19   R(6,27)                 1.1108         estimate D2E/DX2                !
 ! R20   R(7,8)                  1.4046         estimate D2E/DX2                !
 ! R21   R(8,9)                  1.401          estimate D2E/DX2                !
 ! R22   R(8,13)                 1.4101         estimate D2E/DX2                !
 ! R23   R(9,10)                 1.3981         estimate D2E/DX2                !
 ! R24   R(9,28)                 1.0827         estimate D2E/DX2                !
 ! R25   R(10,11)                1.3968         estimate D2E/DX2                !
 ! R26   R(10,29)                1.0824         estimate D2E/DX2                !
 ! R27   R(11,12)                1.397          estimate D2E/DX2                !
 ! R28   R(11,30)                1.0823         estimate D2E/DX2                !
 ! R29   R(12,13)                1.3986         estimate D2E/DX2                !
 ! R30   R(12,31)                1.0824         estimate D2E/DX2                !
 ! R31   R(13,32)                1.0806         estimate D2E/DX2                !
 ! R32   R(14,17)                2.5262         estimate D2E/DX2                !
 ! R33   R(14,18)                2.5367         estimate D2E/DX2                !
 ! R34   R(14,21)                2.5305         estimate D2E/DX2                !
 ! A1    A(2,1,15)             110.9511         estimate D2E/DX2                !
 ! A2    A(2,1,16)             111.6377         estimate D2E/DX2                !
 ! A3    A(2,1,17)             111.332          estimate D2E/DX2                !
 ! A4    A(15,1,16)            108.5891         estimate D2E/DX2                !
 ! A5    A(15,1,17)            107.9587         estimate D2E/DX2                !
 ! A6    A(16,1,17)            106.1731         estimate D2E/DX2                !
 ! A7    A(1,2,3)              107.6761         estimate D2E/DX2                !
 ! A8    A(1,2,4)              109.0808         estimate D2E/DX2                !
 ! A9    A(1,2,5)              110.9771         estimate D2E/DX2                !
 ! A10   A(3,2,4)              107.6302         estimate D2E/DX2                !
 ! A11   A(3,2,5)              110.4477         estimate D2E/DX2                !
 ! A12   A(4,2,5)              110.9105         estimate D2E/DX2                !
 ! A13   A(2,3,18)             111.4138         estimate D2E/DX2                !
 ! A14   A(2,3,19)             110.9933         estimate D2E/DX2                !
 ! A15   A(2,3,20)             111.126          estimate D2E/DX2                !
 ! A16   A(18,3,19)            106.3192         estimate D2E/DX2                !
 ! A17   A(18,3,20)            106.8644         estimate D2E/DX2                !
 ! A18   A(19,3,20)            109.9351         estimate D2E/DX2                !
 ! A19   A(2,4,21)             111.1455         estimate D2E/DX2                !
 ! A20   A(2,4,22)             111.1317         estimate D2E/DX2                !
 ! A21   A(2,4,23)             112.157          estimate D2E/DX2                !
 ! A22   A(21,4,22)            107.7547         estimate D2E/DX2                !
 ! A23   A(21,4,23)            106.057          estimate D2E/DX2                !
 ! A24   A(22,4,23)            108.3563         estimate D2E/DX2                !
 ! A25   A(2,5,6)              116.1817         estimate D2E/DX2                !
 ! A26   A(2,5,24)             109.5958         estimate D2E/DX2                !
 ! A27   A(2,5,25)             109.3404         estimate D2E/DX2                !
 ! A28   A(6,5,24)             107.3814         estimate D2E/DX2                !
 ! A29   A(6,5,25)             106.5093         estimate D2E/DX2                !
 ! A30   A(24,5,25)            107.4718         estimate D2E/DX2                !
 ! A31   A(5,6,7)              111.8668         estimate D2E/DX2                !
 ! A32   A(5,6,26)             111.4515         estimate D2E/DX2                !
 ! A33   A(5,6,27)             109.7605         estimate D2E/DX2                !
 ! A34   A(7,6,26)             108.7366         estimate D2E/DX2                !
 ! A35   A(7,6,27)             109.5152         estimate D2E/DX2                !
 ! A36   A(26,6,27)            105.2885         estimate D2E/DX2                !
 ! A37   A(6,7,8)              125.7247         estimate D2E/DX2                !
 ! A38   A(7,8,9)              118.0588         estimate D2E/DX2                !
 ! A39   A(7,8,13)             122.8506         estimate D2E/DX2                !
 ! A40   A(9,8,13)             119.09           estimate D2E/DX2                !
 ! A41   A(8,9,10)             120.5427         estimate D2E/DX2                !
 ! A42   A(8,9,28)             119.9011         estimate D2E/DX2                !
 ! A43   A(10,9,28)            119.5558         estimate D2E/DX2                !
 ! A44   A(9,10,11)            120.0522         estimate D2E/DX2                !
 ! A45   A(9,10,29)            119.9781         estimate D2E/DX2                !
 ! A46   A(11,10,29)           119.9696         estimate D2E/DX2                !
 ! A47   A(10,11,12)           119.9657         estimate D2E/DX2                !
 ! A48   A(10,11,30)           120.0168         estimate D2E/DX2                !
 ! A49   A(12,11,30)           120.0174         estimate D2E/DX2                !
 ! A50   A(11,12,13)           120.1549         estimate D2E/DX2                !
 ! A51   A(11,12,31)           119.8997         estimate D2E/DX2                !
 ! A52   A(13,12,31)           119.9454         estimate D2E/DX2                !
 ! A53   A(8,13,12)            120.1935         estimate D2E/DX2                !
 ! A54   A(8,13,32)            121.4212         estimate D2E/DX2                !
 ! A55   A(12,13,32)           118.3853         estimate D2E/DX2                !
 ! A56   A(17,14,18)            54.8474         estimate D2E/DX2                !
 ! A57   A(17,14,21)            60.9788         estimate D2E/DX2                !
 ! A58   A(18,14,21)            55.9174         estimate D2E/DX2                !
 ! A59   A(1,17,14)            144.772          estimate D2E/DX2                !
 ! A60   A(3,18,14)            145.1262         estimate D2E/DX2                !
 ! A61   A(4,21,14)            144.4433         estimate D2E/DX2                !
 ! D1    D(15,1,2,3)           -68.0905         estimate D2E/DX2                !
 ! D2    D(15,1,2,4)           175.3841         estimate D2E/DX2                !
 ! D3    D(15,1,2,5)            52.8986         estimate D2E/DX2                !
 ! D4    D(16,1,2,3)           170.637          estimate D2E/DX2                !
 ! D5    D(16,1,2,4)            54.1115         estimate D2E/DX2                !
 ! D6    D(16,1,2,5)           -68.374          estimate D2E/DX2                !
 ! D7    D(17,1,2,3)            52.1725         estimate D2E/DX2                !
 ! D8    D(17,1,2,4)           -64.3529         estimate D2E/DX2                !
 ! D9    D(17,1,2,5)           173.1616         estimate D2E/DX2                !
 ! D10   D(2,1,17,14)           16.5803         estimate D2E/DX2                !
 ! D11   D(15,1,17,14)         138.5932         estimate D2E/DX2                !
 ! D12   D(16,1,17,14)        -105.1168         estimate D2E/DX2                !
 ! D13   D(1,2,3,18)           -55.9051         estimate D2E/DX2                !
 ! D14   D(1,2,3,19)          -174.1845         estimate D2E/DX2                !
 ! D15   D(1,2,3,20)            63.1469         estimate D2E/DX2                !
 ! D16   D(4,2,3,18)            61.565          estimate D2E/DX2                !
 ! D17   D(4,2,3,19)           -56.7144         estimate D2E/DX2                !
 ! D18   D(4,2,3,20)          -179.383          estimate D2E/DX2                !
 ! D19   D(5,2,3,18)          -177.2253         estimate D2E/DX2                !
 ! D20   D(5,2,3,19)            64.4953         estimate D2E/DX2                !
 ! D21   D(5,2,3,20)           -58.1733         estimate D2E/DX2                !
 ! D22   D(1,2,4,21)            65.493          estimate D2E/DX2                !
 ! D23   D(1,2,4,22)          -174.5056         estimate D2E/DX2                !
 ! D24   D(1,2,4,23)           -53.0431         estimate D2E/DX2                !
 ! D25   D(3,2,4,21)           -51.0617         estimate D2E/DX2                !
 ! D26   D(3,2,4,22)            68.9397         estimate D2E/DX2                !
 ! D27   D(3,2,4,23)          -169.5977         estimate D2E/DX2                !
 ! D28   D(5,2,4,21)          -171.9814         estimate D2E/DX2                !
 ! D29   D(5,2,4,22)           -51.98           estimate D2E/DX2                !
 ! D30   D(5,2,4,23)            69.4825         estimate D2E/DX2                !
 ! D31   D(1,2,5,6)             55.1855         estimate D2E/DX2                !
 ! D32   D(1,2,5,24)           -66.7108         estimate D2E/DX2                !
 ! D33   D(1,2,5,25)           175.7273         estimate D2E/DX2                !
 ! D34   D(3,2,5,6)            174.5266         estimate D2E/DX2                !
 ! D35   D(3,2,5,24)            52.6303         estimate D2E/DX2                !
 ! D36   D(3,2,5,25)           -64.9316         estimate D2E/DX2                !
 ! D37   D(4,2,5,6)            -66.2324         estimate D2E/DX2                !
 ! D38   D(4,2,5,24)           171.8713         estimate D2E/DX2                !
 ! D39   D(4,2,5,25)            54.3094         estimate D2E/DX2                !
 ! D40   D(2,3,18,14)           -6.7168         estimate D2E/DX2                !
 ! D41   D(19,3,18,14)         114.3342         estimate D2E/DX2                !
 ! D42   D(20,3,18,14)        -128.2793         estimate D2E/DX2                !
 ! D43   D(2,4,21,14)          -19.3412         estimate D2E/DX2                !
 ! D44   D(22,4,21,14)        -141.3274         estimate D2E/DX2                !
 ! D45   D(23,4,21,14)         102.8072         estimate D2E/DX2                !
 ! D46   D(2,5,6,7)            -77.5897         estimate D2E/DX2                !
 ! D47   D(2,5,6,26)            44.3871         estimate D2E/DX2                !
 ! D48   D(2,5,6,27)           160.6308         estimate D2E/DX2                !
 ! D49   D(24,5,6,7)            45.4699         estimate D2E/DX2                !
 ! D50   D(24,5,6,26)          167.4467         estimate D2E/DX2                !
 ! D51   D(24,5,6,27)          -76.3095         estimate D2E/DX2                !
 ! D52   D(25,5,6,7)           160.3618         estimate D2E/DX2                !
 ! D53   D(25,5,6,26)          -77.6614         estimate D2E/DX2                !
 ! D54   D(25,5,6,27)           38.5824         estimate D2E/DX2                !
 ! D55   D(5,6,7,8)            -72.6915         estimate D2E/DX2                !
 ! D56   D(26,6,7,8)           163.7874         estimate D2E/DX2                !
 ! D57   D(27,6,7,8)            49.2289         estimate D2E/DX2                !
 ! D58   D(6,7,8,9)            173.495          estimate D2E/DX2                !
 ! D59   D(6,7,8,13)            -6.7817         estimate D2E/DX2                !
 ! D60   D(7,8,9,10)          -179.9142         estimate D2E/DX2                !
 ! D61   D(7,8,9,28)            -0.1517         estimate D2E/DX2                !
 ! D62   D(13,8,9,10)            0.3518         estimate D2E/DX2                !
 ! D63   D(13,8,9,28)         -179.8857         estimate D2E/DX2                !
 ! D64   D(7,8,13,12)          179.9071         estimate D2E/DX2                !
 ! D65   D(7,8,13,32)           -0.0835         estimate D2E/DX2                !
 ! D66   D(9,8,13,12)           -0.3723         estimate D2E/DX2                !
 ! D67   D(9,8,13,32)          179.6371         estimate D2E/DX2                !
 ! D68   D(8,9,10,11)           -0.1304         estimate D2E/DX2                !
 ! D69   D(8,9,10,29)          179.8497         estimate D2E/DX2                !
 ! D70   D(28,9,10,11)        -179.8938         estimate D2E/DX2                !
 ! D71   D(28,9,10,29)           0.0864         estimate D2E/DX2                !
 ! D72   D(9,10,11,12)          -0.075          estimate D2E/DX2                !
 ! D73   D(9,10,11,30)         179.9867         estimate D2E/DX2                !
 ! D74   D(29,10,11,12)        179.9448         estimate D2E/DX2                !
 ! D75   D(29,10,11,30)          0.0065         estimate D2E/DX2                !
 ! D76   D(10,11,12,13)          0.0532         estimate D2E/DX2                !
 ! D77   D(10,11,12,31)       -179.8983         estimate D2E/DX2                !
 ! D78   D(30,11,12,13)        179.9915         estimate D2E/DX2                !
 ! D79   D(30,11,12,31)          0.04           estimate D2E/DX2                !
 ! D80   D(11,12,13,8)           0.1724         estimate D2E/DX2                !
 ! D81   D(11,12,13,32)       -179.8368         estimate D2E/DX2                !
 ! D82   D(31,12,13,8)        -179.8761         estimate D2E/DX2                !
 ! D83   D(31,12,13,32)          0.1147         estimate D2E/DX2                !
 ! D84   D(18,14,17,1)         -49.8921         estimate D2E/DX2                !
 ! D85   D(21,14,17,1)          16.9588         estimate D2E/DX2                !
 ! D86   D(17,14,18,3)          43.3396         estimate D2E/DX2                !
 ! D87   D(21,14,18,3)         -32.7771         estimate D2E/DX2                !
 ! D88   D(17,14,21,4)         -15.14           estimate D2E/DX2                !
 ! D89   D(18,14,21,4)          50.0503         estimate D2E/DX2                !
 --------------------------------------------------------------------------------
 Trust Radius=3.00D-01 FncErr=1.00D-07 GrdErr=1.00D-06 EigMax=2.50D+02 EigMin=1.00D-04
 Number of steps in this run=    192 maximum allowed number of steps=    192.
 GradGradGradGradGradGradGradGradGradGradGradGradGradGradGradGradGradGrad

 Leave Link  103 at Sat Aug 21 09:33:12 2021, MaxMem=   104857600 cpu:               0.4 elap:               0.0
 (Enter /sw/arch/RedHatEnterpriseServer7/EB_production/2020/software/Gaussian/g16.c01/l202.exe)
                          Input orientation:                          
 ---------------------------------------------------------------------
 Center     Atomic      Atomic             Coordinates (Angstroms)
 Number     Number       Type             X           Y           Z
 ---------------------------------------------------------------------
      1          6           0        0.078029   -2.146036   -0.390596
      2          7           0       -0.960703   -2.421648    0.633003
      3          6           0       -0.286339   -3.019491    1.808446
      4          6           0       -1.912719   -3.429544    0.099624
      5          6           0       -1.674061   -1.167875    1.022222
      6          6           0       -2.317677   -0.360348   -0.133565
      7          8           0       -1.346230    0.393426   -0.861569
      8          6           0       -0.694370    1.550295   -0.403692
      9          6           0        0.332163    2.084539   -1.193371
     10          6           0        1.016925    3.233541   -0.786396
     11          6           0        0.678495    3.860927    0.414809
     12          6           0       -0.346070    3.340674    1.209253
     13          6           0       -1.033754    2.191722    0.805394
     14         17           0        0.825022   -5.560175   -0.341316
     15          1           0        0.761089   -1.333400   -0.055737
     16          1           0       -0.372627   -1.851853   -1.362814
     17          1           0        0.694711   -3.050209   -0.595547
     18          1           0        0.292054   -3.928671    1.526618
     19          1           0       -1.027651   -3.344595    2.570175
     20          1           0        0.435846   -2.305440    2.262543
     21          1           0       -1.411971   -4.411907   -0.056689
     22          1           0       -2.762194   -3.589375    0.800516
     23          1           0       -2.324880   -3.134639   -0.887491
     24          1           0       -0.972160   -0.488753    1.550701
     25          1           0       -2.495451   -1.415978    1.730184
     26          1           0       -2.855195   -1.021197   -0.838093
     27          1           0       -3.091149    0.325512    0.272765
     28          1           0        0.602260    1.603734   -2.125080
     29          1           0        1.810128    3.637083   -1.402403
     30          1           0        1.209120    4.750265    0.729419
     31          1           0       -0.608553    3.828657    2.139089
     32          1           0       -1.822912    1.815522    1.440450
 ---------------------------------------------------------------------
                    Distance matrix (angstroms):
                    1          2          3          4          5
     1  C    0.000000
     2  N    1.484143   0.000000
     3  C    2.394050   1.481165   0.000000
     4  C    2.418840   1.485490   2.394437   0.000000
     5  C    2.454113   1.494094   2.443850   2.454239   0.000000
     6  C    2.999025   2.584175   3.868951   3.104566   1.549898
     7  O    2.949440   3.210455   4.460981   3.982449   2.468563
     8  C    3.776193   4.113636   5.093426   5.151359   3.222029
     9  C    4.313560   5.031189   5.953534   6.092327   4.417237
    10  C    5.475220   6.156855   6.894354   7.332431   5.466715
    11  C    6.090389   6.496563   7.086133   7.743688   5.585008
    12  C    5.730913   5.823589   6.388607   7.037153   4.703781
    13  C    4.634932   4.617168   5.359243   5.733177   3.426937
    14  Cl   3.495250   3.740115   3.508800   3.497033   5.234210
    15  H    1.113139   2.150166   2.723084   3.401060   2.668211
    16  H    1.111235   2.157263   3.380490   2.645698   2.801777
    17  H    1.113477   2.155184   2.596649   2.725041   3.430953
    18  H    2.626653   2.153849   1.113810   2.673287   3.426663
    19  H    3.380124   2.146846   1.111516   2.625678   2.748111
    20  H    2.681900   2.149245   1.112486   3.384906   2.698918
    21  H    2.732355   2.154170   2.585459   1.113651   3.428773
    22  H    3.401300   2.153373   2.733230   1.112836   2.663991
    23  H    2.645413   2.163617   3.381861   1.109613   2.817575
    24  H    2.760094   2.139716   2.634657   3.411529   1.110478
    25  H    3.413721   2.137903   2.730852   2.655702   1.112406
    26  H    3.173219   2.777496   4.194803   2.750947   2.208475
    27  H    4.073363   3.495062   4.627561   3.939432   2.190897
    28  H    4.164616   5.123824   6.134855   6.050481   4.771684
    29  H    6.121143   6.966247   7.682103   8.127293   6.411396
    30  H    7.077624   7.493582   7.985600   8.777915   6.589601
    31  H    6.524389   6.438837   6.863693   7.651258   5.229535
    32  H    4.760278   4.398748   5.086632   5.414480   3.016244
                    6          7          8          9         10
     6  C    0.000000
     7  O    1.428942   0.000000
     8  C    2.521637   1.404606   0.000000
     9  C    3.757967   2.405610   1.400992   0.000000
    10  C    4.945887   3.695457   2.430702   1.398118   0.000000
    11  C    5.205471   4.213338   2.809577   2.421104   1.396797
    12  C    4.403176   3.738301   2.434823   2.794723   2.419059
    13  C    3.007185   2.471897   1.410142   2.423279   2.797225
    14  Cl   6.079302   6.358488   7.271260   7.707825   8.807064
    15  H    3.229812   2.841142   3.248866   3.627740   4.632091
    16  H    2.742054   2.498085   3.549372   4.002577   5.303239
    17  H    4.064881   4.011836   4.809469   5.182130   6.294899
    18  H    4.722270   5.202685   5.892215   6.599897   7.561267
    19  H    4.228488   5.084404   5.737152   6.744544   7.662815
    20  H    4.136013   4.496637   4.822125   5.588024   6.349330
    21  H    4.152270   4.872718   6.015249   6.821866   8.055115
    22  H    3.390681   4.542046   5.669411   6.763426   7.959410
    23  H    2.874917   3.661375   4.984098   5.864577   7.192468
    24  H    2.159550   2.595615   2.838051   3.981585   4.824309
    25  H    2.149307   3.363307   4.073831   5.366209   6.347282
    26  H    1.105444   2.068498   3.386804   4.464423   5.753154
    27  H    1.110751   2.082323   2.775290   4.118591   5.143416
    28  H    4.043486   2.618763   2.155755   1.082685   2.149487
    29  H    5.884571   4.558115   3.409489   2.153710   1.082350
    30  H    6.269083   5.295574   3.891918   3.401804   2.152925
    31  H    5.062986   4.620490   3.415265   3.877136   3.399236
    32  H    2.730701   2.747521   2.178259   3.413756   3.877408
                   11         12         13         14         15
    11  C    0.000000
    12  C    1.396975   0.000000
    13  C    2.422932   1.398607   0.000000
    14  Cl   9.452532   9.110479   8.053689   0.000000
    15  H    5.216250   4.967189   4.048394   4.236894   0.000000
    16  H    6.074591   5.794702   4.635592   4.028582   1.806255
    17  H    6.984618   6.721898   5.694565   2.526172   1.800898
    18  H    7.878026   7.304197   6.303740   2.536737   3.075593
    19  H    7.712074   6.856346   5.810791   4.100972   3.760307
    20  H    6.441823   5.796500   4.950502   4.186268   2.534772
    21  H    8.545884   7.927248   6.670394   2.530547   3.768209
    22  H    8.215480   7.350531   6.033955   4.249229   4.270377
    23  H    7.723613   7.088138   5.736113   4.012906   3.668717
    24  H    4.789011   3.895265   2.782844   5.703412   2.509626
    25  H    6.296814   5.245660   4.000912   5.700090   3.715022
    26  H    6.155637   5.432610   4.042468   5.864564   3.713093
    27  H    5.170063   4.183739   2.828305   7.096112   4.207094
    28  H    3.398789   3.877379   3.407338   7.386003   3.596410
    29  H    2.152431   3.399676   3.879575   9.310526   5.255444
    30  H    1.082342   2.153092   3.403292  10.373003   6.150462
    31  H    2.151900   1.082414   2.153856   9.816197   5.774081
    32  H    3.390082   2.135557   1.080552   8.036613   4.339510
                   16         17         18         19         20
    16  H    0.000000
    17  H    1.778754   0.000000
    18  H    3.619916   2.331826   0.000000
    19  H    4.257433   3.615936   1.780948   0.000000
    20  H    3.742003   2.964856   1.788055   1.821072   0.000000
    21  H    3.056154   2.565677   2.375727   2.861341   3.637371
    22  H    3.661831   3.766946   3.157654   2.490030   3.743457
    23  H    2.383855   3.034846   3.647842   3.698965   4.269882
    24  H    3.272010   3.734420   3.664949   3.032860   2.406149
    25  H    3.776639   4.272806   3.758357   2.565070   3.109188
    26  H    2.669919   4.096041   4.893919   4.511584   4.700444
    27  H    3.847908   5.146085   5.578197   4.796436   4.829163
    28  H    3.670495   4.899715   6.636161   7.013415   5.878824
    29  H    5.907149   6.827521   8.253747   8.519284   7.115761
    30  H    7.104036   7.928906   8.763588   8.597574   7.261639
    31  H    6.677363   7.516351   7.833412   7.198404   6.223597
    32  H    4.838518   5.844574   6.121786   5.341865   4.770760
                   21         22         23         24         25
    21  H    0.000000
    22  H    1.798461   0.000000
    23  H    1.776246   1.802053   0.000000
    24  H    4.262426   3.657985   3.843871   0.000000
    25  H    3.652730   2.378884   3.136098   1.792310   0.000000
    26  H    3.767015   3.047823   2.179521   3.087985   2.623226
    27  H    5.036995   3.963972   3.729076   2.605046   2.347704
    28  H    6.672579   6.844490   5.705432   4.513166   5.794613
    29  H    8.773774   8.830667   7.951078   5.786577   7.340609
    30  H    9.562086   9.237207   8.790635   5.734091   7.262777
    31  H    8.565852   7.839461   7.784180   4.372464   5.588719
    32  H    6.418035   5.523104   5.493212   2.458784   3.313434
                   26         27         28         29         30
    26  H    0.000000
    27  H    1.761620   0.000000
    28  H    4.527758   4.585279   0.000000
    29  H    6.616892   6.147781   2.472997   0.000000
    30  H    7.230873   6.187026   4.291515   2.478921   0.000000
    31  H    6.118178   4.681717   4.959787   4.292888   2.477996
    32  H    3.782108   2.278606   4.317328   4.959726   4.279194
                   31         32
    31  H    0.000000
    32  H    2.452647   0.000000
 Stoichiometry    C11H18ClNO
 Framework group  C1[X(C11H18ClNO)]
 Deg. of freedom    90
 Full point group                 C1      NOp   1
 Largest Abelian subgroup         C1      NOp   1
 Largest concise Abelian subgroup C1      NOp   1
                         Standard orientation:                         
 ---------------------------------------------------------------------
 Center     Atomic      Atomic             Coordinates (Angstroms)
 Number     Number       Type             X           Y           Z
 ---------------------------------------------------------------------
      1          6           0        1.403456    0.722099   -0.240421
      2          7           0        1.691288   -0.651600    0.242058
      3          6           0        2.297217   -0.537525    1.588790
      4          6           0        2.697514   -1.279539   -0.652305
      5          6           0        0.443233   -1.471014    0.298929
      6          6           0       -0.372297   -1.567009   -1.015560
      7          8           0       -1.135478   -0.383119   -1.256050
      8          6           0       -2.290375    0.004338   -0.556758
      9          6           0       -2.834748    1.265765   -0.831056
     10          6           0       -3.982327    1.704706   -0.163877
     11          6           0       -4.598130    0.883225    0.783221
     12          6           0       -4.067712   -0.378541    1.062760
     13          6           0       -2.920147   -0.821453    0.397158
     14         17           0        4.815503    1.399614    0.099696
     15          1           0        0.591605    1.192400    0.358573
     16          1           0        1.102236    0.726000   -1.310044
     17          1           0        2.303842    1.373322   -0.169393
     18          1           0        3.202060    0.111791    1.573925
     19          1           0        2.631309   -1.530329    1.960530
     20          1           0        1.584863   -0.081901    2.311689
     21          1           0        3.676879   -0.753409   -0.587107
     22          1           0        2.866153   -2.345428   -0.380562
     23          1           0        2.395319   -1.234468   -1.719024
     24          1           0       -0.233481   -1.065165    1.080278
     25          1           0        0.700112   -2.513915    0.588442
     26          1           0        0.284085   -1.749316   -1.886154
     27          1           0       -1.052124   -2.444362   -0.972501
     28          1           0       -2.362951    1.909778   -1.562398
     29          1           0       -4.393747    2.681950   -0.381156
     30          1           0       -5.486372    1.223691    1.299529
     31          1           0       -4.546727   -1.014914    1.795694
     32          1           0       -2.535914   -1.803321    0.633574
 ---------------------------------------------------------------------
 Rotational constants (GHZ):           1.1935257           0.2260505           0.2128009
 Leave Link  202 at Sat Aug 21 09:33:13 2021, MaxMem=   104857600 cpu:               0.4 elap:               0.1
 (Enter /sw/arch/RedHatEnterpriseServer7/EB_production/2020/software/Gaussian/g16.c01/l301.exe)
 Standard basis: TZVP (5D, 7F)
 Ernie: Thresh=  0.10000D-02 Tol=  0.10000D-05 Strict=F.
 There are   391 symmetry adapted cartesian basis functions of A   symmetry.
 There are   377 symmetry adapted basis functions of A   symmetry.
   377 basis functions,   646 primitive gaussians,   391 cartesian basis functions
    58 alpha electrons       58 beta electrons
       nuclear repulsion energy       987.1177173796 Hartrees.
 IExCor=  404 DFT=T Ex=B Corr=P86 ExCW=0 ScaHFX=  0.000000
 ScaDFX=  1.000000  1.000000  1.000000  1.000000 ScalE2=  1.000000  1.000000
 IRadAn=      5 IRanWt=     -1 IRanGd=            0 ICorTp=0 IEmpDi=131
 NAtoms=   32 NActive=   32 NUniq=   32 SFac= 1.00D+00 NAtFMM=   60 NAOKFM=F Big=F
 Integral buffers will be    131072 words long.
 Raffenetti 2 integral format.
 Two-electron integral symmetry is turned on.
 R6Disp:  Grimme-D3 Dispersion energy=       -0.0390412875 Hartrees.
 Nuclear repulsion after empirical dispersion term =      987.0786760922 Hartrees.
 ------------------------------------------------------------------------------
 Polarizable Continuum Model (PCM)
 =================================
 Model                : PCM.
 Atomic radii         : UFF (Universal Force Field).
 Polarization charges : Total charges.
 Charge compensation  : None.
 Solution method      : On-the-fly selection.
 Cavity type          : Scaled VdW (van der Waals Surface) (Alpha=1.100).
 Cavity algorithm     : GePol (No added spheres)
                        Default sphere list used, NSphG=   32.
                        Lebedev-Laikov grids with approx.  5.0 points / Ang**2.
                        Smoothing algorithm: York/Karplus (Gamma=1.0000).
                        Polarization charges: spherical gaussians, with
                                              point-specific exponents (IZeta= 3).
                        Self-potential: point-specific (ISelfS= 7).
                        Self-field    : sphere-specific E.n sum rule (ISelfD= 2).
 1st derivatives      : Analytical E(r).r(x)/FMM algorithm (CHGder, D1EAlg=3).
                        Cavity 1st derivative terms included.
 Solvent              : Water, Eps=  78.355300 Eps(inf)=   1.777849
 ------------------------------------------------------------------------------
 GePol: Number of generator spheres                  =      32
 GePol: Total number of spheres                      =      32
 GePol: Number of exposed spheres                    =      31 ( 96.88%)
 GePol: Number of points                             =    2236
 GePol: Average weight of points                     =       0.14
 GePol: Minimum weight of points                     =   0.40D-09
 GePol: Maximum weight of points                     =    0.21616
 GePol: Number of points with low weight             =     174
 GePol: Fraction of low-weight points (<1% of avg)   =       7.78%
 GePol: Cavity surface area                          =    303.983 Ang**2
 GePol: Cavity volume                                =    326.780 Ang**3
 Leave Link  301 at Sat Aug 21 09:33:13 2021, MaxMem=   104857600 cpu:               1.5 elap:               0.1
 (Enter /sw/arch/RedHatEnterpriseServer7/EB_production/2020/software/Gaussian/g16.c01/l302.exe)
 NPDir=0 NMtPBC=     1 NCelOv=     1 NCel=       1 NClECP=     1 NCelD=      1
         NCelK=      1 NCelE2=     1 NClLst=     1 CellRange=     0.0.
 One-electron integrals computed using PRISM.
 One-electron integral symmetry used in STVInt
 NBasis=   377 RedAO= T EigKep=  1.03D-05  NBF=   377
 NBsUse=   377 1.00D-06 EigRej= -1.00D+00 NBFU=   377
 Precomputing XC quadrature grid using
 IXCGrd= 4 IRadAn=           5 IRanWt=          -1 IRanGd=           0 AccXCQ= 0.00D+00.
 Generated NRdTot=       0 NPtTot=           0 NUsed=           0 NTot=          32
 NSgBfM=   382   382   382   382   382 MxSgAt=    32 MxSgA2=    32.
 Leave Link  302 at Sat Aug 21 09:33:14 2021, MaxMem=   104857600 cpu:               8.8 elap:               0.4
 (Enter /sw/arch/RedHatEnterpriseServer7/EB_production/2020/software/Gaussian/g16.c01/l303.exe)
 DipDrv:  MaxL=1.
 Leave Link  303 at Sat Aug 21 09:33:14 2021, MaxMem=   104857600 cpu:               1.5 elap:               0.1
 (Enter /sw/arch/RedHatEnterpriseServer7/EB_production/2020/software/Gaussian/g16.c01/l401.exe)
 ExpMin= 9.52D-02 ExpMax= 6.95D+04 ExpMxC= 2.37D+03 IAcc=3 IRadAn=         5 AccDes= 0.00D+00
 Harris functional with IExCor=  404 and IRadAn=       5 diagonalized for initial guess.
 HarFok:  IExCor=  404 AccDes= 0.00D+00 IRadAn=         5 IDoV= 1 UseB2=F ITyADJ=14
 ICtDFT=  3500011 ScaDFX=  1.000000  1.000000  1.000000  1.000000
 FoFCou: FMM=F IPFlag=           0 FMFlag=      100000 FMFlg1=           0
         NFxFlg=           0 DoJE=T BraDBF=F KetDBF=T FulRan=T
         wScrn=  0.000000 ICntrl=       500 IOpCl=  0 I1Cent=   200000004 NGrid=           0
         NMat0=    1 NMatS0=      1 NMatT0=    0 NMatD0=    1 NMtDS0=    0 NMtDT0=    0
 Petite list used in FoFCou.
 Harris En= -1020.58520851472    
 JPrj=0 DoOrth=F DoCkMO=F.
 Leave Link  401 at Sat Aug 21 09:33:15 2021, MaxMem=   104857600 cpu:              21.9 elap:               1.0
 (Enter /sw/arch/RedHatEnterpriseServer7/EB_production/2020/software/Gaussian/g16.c01/l502.exe)
 Integral symmetry usage will be decided dynamically.
 Closed shell SCF:
 Using DIIS extrapolation, IDIIS=  1040.
 NGot=   104857600 LenX=   104537638 LenY=   104384316
 Requested convergence on RMS density matrix=1.00D-08 within 128 cycles.
 Requested convergence on MAX density matrix=1.00D-06.
 Requested convergence on             energy=1.00D-06.
 No special actions if energy rises.
 Fock matrices will be formed incrementally for  20 cycles.

 Cycle   1  Pass 1  IDiag  1:
 FoFJK:  IHMeth= 1 ICntrl=     500 DoSepK=F KAlg= 0 I1Cent=           0 FoldK=F
 IRaf= 850000000 NMat=       1 IRICut=       1 DoRegI=T DoRafI=F ISym2E= 0 IDoP0=0 IntGTp=1.
 FoFCou: FMM=F IPFlag=           0 FMFlag=      100000 FMFlg1=           0
         NFxFlg=           0 DoJE=T BraDBF=F KetDBF=F FulRan=T
         wScrn=  0.000000 ICntrl=       500 IOpCl=  0 I1Cent=           0 NGrid=           0
         NMat0=    1 NMatS0=      1 NMatT0=    0 NMatD0=    1 NMtDS0=    0 NMtDT0=    0
 Symmetry not used in FoFCou.
 Inv3:  Mode=1 IEnd=    14999088.
 Iteration    1 A*A^-1 deviation from unit magnitude is 3.33D-15 for   1388.
 Iteration    1 A*A^-1 deviation from orthogonality  is 2.86D-15 for   1133    920.
 Iteration    1 A^-1*A deviation from unit magnitude is 3.11D-15 for   1890.
 Iteration    1 A^-1*A deviation from orthogonality  is 2.00D-13 for   1409   1386.
 E= -1020.15692954568    
 DIIS: error= 2.31D-02 at cycle   1 NSaved=   1.
 NSaved= 1 IEnMin= 1 EnMin= -1020.15692954568     IErMin= 1 ErrMin= 2.31D-02
 ErrMax= 2.31D-02  0.00D+00 EMaxC= 1.00D-01 BMatC= 2.98D-01 BMatP= 2.98D-01
 IDIUse=3 WtCom= 7.69D-01 WtEn= 2.31D-01
 Coeff-Com:  0.100D+01
 Coeff-En:   0.100D+01
 Coeff:      0.100D+01
 Gap=     0.203 Goal=   None    Shift=    0.000
 GapD=    0.203 DampG=1.000 DampE=0.500 DampFc=0.5000 IDamp=-1.
 Damping current iteration by 5.00D-01
 RMSDP=3.79D-03 MaxDP=1.62D-01              OVMax= 2.41D-01

 Cycle   2  Pass 1  IDiag  1:
 RMSU=  1.89D-03    CP:  9.89D-01
 E= -1020.25378767566     Delta-E=       -0.096858129978 Rises=F Damp=T
 DIIS: error= 9.48D-03 at cycle   2 NSaved=   2.
 NSaved= 2 IEnMin= 2 EnMin= -1020.25378767566     IErMin= 2 ErrMin= 9.48D-03
 ErrMax= 9.48D-03  0.00D+00 EMaxC= 1.00D-01 BMatC= 3.56D-02 BMatP= 2.98D-01
 IDIUse=3 WtCom= 9.05D-01 WtEn= 9.48D-02
 Coeff-Com:  0.175D+00 0.825D+00
 Coeff-En:   0.289D+00 0.711D+00
 Coeff:      0.185D+00 0.815D+00
 Gap=     0.184 Goal=   None    Shift=    0.000
 RMSDP=1.01D-03 MaxDP=3.93D-02 DE=-9.69D-02 OVMax= 1.99D-01

 Cycle   3  Pass 1  IDiag  1:
 RMSU=  9.99D-04    CP:  9.81D-01  9.45D-01
 E= -1020.42512103719     Delta-E=       -0.171333361534 Rises=F Damp=F
 DIIS: error= 8.14D-03 at cycle   3 NSaved=   3.
 NSaved= 3 IEnMin= 3 EnMin= -1020.42512103719     IErMin= 3 ErrMin= 8.14D-03
 ErrMax= 8.14D-03  0.00D+00 EMaxC= 1.00D-01 BMatC= 1.80D-02 BMatP= 3.56D-02
 IDIUse=3 WtCom= 9.19D-01 WtEn= 8.14D-02
 Coeff-Com:  0.410D-01 0.403D+00 0.556D+00
 Coeff-En:   0.000D+00 0.000D+00 0.100D+01
 Coeff:      0.376D-01 0.370D+00 0.592D+00
 Gap=     0.149 Goal=   None    Shift=    0.000
 RMSDP=7.68D-04 MaxDP=3.52D-02 DE=-1.71D-01 OVMax= 1.04D-01

 Cycle   4  Pass 1  IDiag  1:
 RMSU=  5.36D-04    CP:  9.87D-01  8.01D-01  5.27D-01
 E= -1020.43132778817     Delta-E=       -0.006206750976 Rises=F Damp=F
 DIIS: error= 8.06D-03 at cycle   4 NSaved=   4.
 NSaved= 4 IEnMin= 4 EnMin= -1020.43132778817     IErMin= 4 ErrMin= 8.06D-03
 ErrMax= 8.06D-03  0.00D+00 EMaxC= 1.00D-01 BMatC= 1.06D-02 BMatP= 1.80D-02
 IDIUse=3 WtCom= 9.19D-01 WtEn= 8.06D-02
 Coeff-Com:  0.668D-02 0.138D+00 0.426D+00 0.430D+00
 Coeff-En:   0.000D+00 0.000D+00 0.416D+00 0.584D+00
 Coeff:      0.615D-02 0.127D+00 0.425D+00 0.442D+00
 Gap=     0.150 Goal=   None    Shift=    0.000
 RMSDP=4.54D-04 MaxDP=2.19D-02 DE=-6.21D-03 OVMax= 5.41D-02

 Cycle   5  Pass 1  IDiag  1:
 RMSU=  1.60D-04    CP:  9.82D-01  8.58D-01  7.75D-01  3.95D-01
 E= -1020.44209365567     Delta-E=       -0.010765867500 Rises=F Damp=F
 DIIS: error= 1.62D-03 at cycle   5 NSaved=   5.
 NSaved= 5 IEnMin= 5 EnMin= -1020.44209365567     IErMin= 5 ErrMin= 1.62D-03
 ErrMax= 1.62D-03  0.00D+00 EMaxC= 1.00D-01 BMatC= 5.16D-04 BMatP= 1.06D-02
 IDIUse=3 WtCom= 9.84D-01 WtEn= 1.62D-02
 Coeff-Com:  0.225D-02 0.480D-01 0.208D+00 0.266D+00 0.475D+00
 Coeff-En:   0.000D+00 0.000D+00 0.000D+00 0.000D+00 0.100D+01
 Coeff:      0.222D-02 0.472D-01 0.205D+00 0.262D+00 0.484D+00
 Gap=     0.150 Goal=   None    Shift=    0.000
 RMSDP=8.84D-05 MaxDP=3.80D-03 DE=-1.08D-02 OVMax= 9.49D-03

 Cycle   6  Pass 1  IDiag  1:
 RMSU=  4.84D-05    CP:  9.83D-01  8.54D-01  7.33D-01  4.84D-01  7.65D-01
 E= -1020.44249998114     Delta-E=       -0.000406325473 Rises=F Damp=F
 DIIS: error= 4.08D-04 at cycle   6 NSaved=   6.
 NSaved= 6 IEnMin= 6 EnMin= -1020.44249998114     IErMin= 6 ErrMin= 4.08D-04
 ErrMax= 4.08D-04  0.00D+00 EMaxC= 1.00D-01 BMatC= 7.63D-05 BMatP= 5.16D-04
 IDIUse=3 WtCom= 9.96D-01 WtEn= 4.08D-03
 Coeff-Com:  0.315D-03 0.129D-01 0.745D-01 0.112D+00 0.320D+00 0.481D+00
 Coeff-En:   0.000D+00 0.000D+00 0.000D+00 0.000D+00 0.116D+00 0.884D+00
 Coeff:      0.314D-03 0.129D-01 0.742D-01 0.111D+00 0.319D+00 0.483D+00
 Gap=     0.150 Goal=   None    Shift=    0.000
 RMSDP=2.73D-05 MaxDP=1.43D-03 DE=-4.06D-04 OVMax= 1.73D-03

 Cycle   7  Pass 1  IDiag  1:
 RMSU=  1.13D-05    CP:  9.83D-01  8.57D-01  7.42D-01  4.78D-01  7.22D-01
                    CP:  5.64D-01
 E= -1020.44256257785     Delta-E=       -0.000062596711 Rises=F Damp=F
 DIIS: error= 7.76D-05 at cycle   7 NSaved=   7.
 NSaved= 7 IEnMin= 7 EnMin= -1020.44256257785     IErMin= 7 ErrMin= 7.76D-05
 ErrMax= 7.76D-05  0.00D+00 EMaxC= 1.00D-01 BMatC= 2.12D-06 BMatP= 7.63D-05
 IDIUse=1 WtCom= 1.00D+00 WtEn= 0.00D+00
 Coeff-Com: -0.164D-04 0.406D-02 0.284D-01 0.443D-01 0.141D+00 0.249D+00
 Coeff-Com:  0.534D+00
 Coeff:     -0.164D-04 0.406D-02 0.284D-01 0.443D-01 0.141D+00 0.249D+00
 Coeff:      0.534D+00
 Gap=     0.150 Goal=   None    Shift=    0.000
 RMSDP=6.28D-06 MaxDP=2.97D-04 DE=-6.26D-05 OVMax= 4.50D-04

 Cycle   8  Pass 1  IDiag  1:
 RMSU=  4.47D-06    CP:  9.83D-01  8.56D-01  7.41D-01  4.80D-01  7.29D-01
                    CP:  5.71D-01  7.52D-01
 E= -1020.44256434744     Delta-E=       -0.000001769586 Rises=F Damp=F
 DIIS: error= 4.03D-05 at cycle   8 NSaved=   8.
 NSaved= 8 IEnMin= 8 EnMin= -1020.44256434744     IErMin= 8 ErrMin= 4.03D-05
 ErrMax= 4.03D-05  0.00D+00 EMaxC= 1.00D-01 BMatC= 3.86D-07 BMatP= 2.12D-06
 IDIUse=1 WtCom= 1.00D+00 WtEn= 0.00D+00
 Coeff-Com: -0.372D-04 0.710D-03 0.644D-02 0.103D-01 0.382D-01 0.814D-01
 Coeff-Com:  0.336D+00 0.527D+00
 Coeff:     -0.372D-04 0.710D-03 0.644D-02 0.103D-01 0.382D-01 0.814D-01
 Coeff:      0.336D+00 0.527D+00
 Gap=     0.150 Goal=   None    Shift=    0.000
 RMSDP=2.56D-06 MaxDP=1.21D-04 DE=-1.77D-06 OVMax= 2.77D-04

 Cycle   9  Pass 1  IDiag  1:
 RMSU=  1.33D-06    CP:  9.83D-01  8.56D-01  7.41D-01  4.79D-01  7.34D-01
                    CP:  5.71D-01  7.75D-01  6.92D-01
 E= -1020.44256462017     Delta-E=       -0.000000272733 Rises=F Damp=F
 DIIS: error= 1.69D-05 at cycle   9 NSaved=   9.
 NSaved= 9 IEnMin= 9 EnMin= -1020.44256462017     IErMin= 9 ErrMin= 1.69D-05
 ErrMax= 1.69D-05  0.00D+00 EMaxC= 1.00D-01 BMatC= 4.38D-08 BMatP= 3.86D-07
 IDIUse=1 WtCom= 1.00D+00 WtEn= 0.00D+00
 Coeff-Com: -0.148D-04 0.112D-03 0.160D-02 0.266D-02 0.121D-01 0.308D-01
 Coeff-Com:  0.173D+00 0.336D+00 0.443D+00
 Coeff:     -0.148D-04 0.112D-03 0.160D-02 0.266D-02 0.121D-01 0.308D-01
 Coeff:      0.173D+00 0.336D+00 0.443D+00
 Gap=     0.150 Goal=   None    Shift=    0.000
 RMSDP=7.05D-07 MaxDP=3.08D-05 DE=-2.73D-07 OVMax= 9.71D-05

 Cycle  10  Pass 1  IDiag  1:
 RMSU=  4.31D-07    CP:  9.83D-01  8.56D-01  7.41D-01  4.79D-01  7.34D-01
                    CP:  5.76D-01  7.91D-01  6.81D-01  6.63D-01
 E= -1020.44256465090     Delta-E=       -0.000000030737 Rises=F Damp=F
 DIIS: error= 3.41D-06 at cycle  10 NSaved=  10.
 NSaved=10 IEnMin=10 EnMin= -1020.44256465090     IErMin=10 ErrMin= 3.41D-06
 ErrMax= 3.41D-06  0.00D+00 EMaxC= 1.00D-01 BMatC= 2.95D-09 BMatP= 4.38D-08
 IDIUse=1 WtCom= 1.00D+00 WtEn= 0.00D+00
 Coeff-Com: -0.409D-05-0.953D-06 0.203D-03 0.354D-03 0.215D-02 0.693D-02
 Coeff-Com:  0.496D-01 0.113D+00 0.250D+00 0.578D+00
 Coeff:     -0.409D-05-0.953D-06 0.203D-03 0.354D-03 0.215D-02 0.693D-02
 Coeff:      0.496D-01 0.113D+00 0.250D+00 0.578D+00
 Gap=     0.150 Goal=   None    Shift=    0.000
 RMSDP=1.92D-07 MaxDP=4.60D-06 DE=-3.07D-08 OVMax= 1.52D-05

 Cycle  11  Pass 1  IDiag  1:
 RMSU=  1.20D-07    CP:  9.83D-01  8.56D-01  7.41D-01  4.79D-01  7.33D-01
                    CP:  5.76D-01  7.95D-01  6.93D-01  6.82D-01  7.55D-01
 E= -1020.44256464987     Delta-E=        0.000000001033 Rises=F Damp=F
 DIIS: error= 6.67D-07 at cycle  11 NSaved=  11.
 NSaved=11 IEnMin=10 EnMin= -1020.44256465090     IErMin=11 ErrMin= 6.67D-07
 ErrMax= 6.67D-07  0.00D+00 EMaxC= 1.00D-01 BMatC= 2.10D-10 BMatP= 2.95D-09
 IDIUse=1 WtCom= 1.00D+00 WtEn= 0.00D+00
 Coeff-Com: -0.130D-05-0.830D-05 0.223D-04 0.502D-04 0.476D-03 0.190D-02
 Coeff-Com:  0.156D-01 0.399D-01 0.111D+00 0.315D+00 0.516D+00
 Coeff:     -0.130D-05-0.830D-05 0.223D-04 0.502D-04 0.476D-03 0.190D-02
 Coeff:      0.156D-01 0.399D-01 0.111D+00 0.315D+00 0.516D+00
 Gap=     0.150 Goal=   None    Shift=    0.000
 RMSDP=5.34D-08 MaxDP=2.53D-06 DE= 1.03D-09 OVMax= 5.20D-06

 Cycle  12  Pass 1  IDiag  1:
 RMSU=  3.54D-08    CP:  9.83D-01  8.56D-01  7.41D-01  4.79D-01  7.33D-01
                    CP:  5.76D-01  7.95D-01  6.97D-01  6.93D-01  7.58D-01
                    CP:  8.06D-01
 E= -1020.44256465004     Delta-E=       -0.000000000167 Rises=F Damp=F
 DIIS: error= 2.17D-07 at cycle  12 NSaved=  12.
 NSaved=12 IEnMin=10 EnMin= -1020.44256465090     IErMin=12 ErrMin= 2.17D-07
 ErrMax= 2.17D-07  0.00D+00 EMaxC= 1.00D-01 BMatC= 3.06D-11 BMatP= 2.10D-10
 IDIUse=1 WtCom= 1.00D+00 WtEn= 0.00D+00
 Coeff-Com: -0.143D-07-0.373D-05-0.139D-04-0.191D-04-0.312D-04 0.120D-03
 Coeff-Com:  0.209D-02 0.790D-02 0.304D-01 0.105D+00 0.306D+00 0.549D+00
 Coeff:     -0.143D-07-0.373D-05-0.139D-04-0.191D-04-0.312D-04 0.120D-03
 Coeff:      0.209D-02 0.790D-02 0.304D-01 0.105D+00 0.306D+00 0.549D+00
 Gap=     0.150 Goal=   None    Shift=    0.000
 RMSDP=1.80D-08 MaxDP=5.84D-07 DE=-1.67D-10 OVMax= 1.98D-06

 Cycle  13  Pass 1  IDiag  1:
 RMSU=  8.45D-09    CP:  9.83D-01  8.56D-01  7.41D-01  4.79D-01  7.33D-01
                    CP:  5.76D-01  7.95D-01  6.97D-01  6.99D-01  7.68D-01
                    CP:  8.02D-01  6.93D-01
 E= -1020.44256465007     Delta-E=       -0.000000000029 Rises=F Damp=F
 DIIS: error= 7.16D-08 at cycle  13 NSaved=  13.
 NSaved=13 IEnMin=10 EnMin= -1020.44256465090     IErMin=13 ErrMin= 7.16D-08
 ErrMax= 7.16D-08  0.00D+00 EMaxC= 1.00D-01 BMatC= 1.47D-12 BMatP= 3.06D-11
 IDIUse=1 WtCom= 1.00D+00 WtEn= 0.00D+00
 Coeff-Com:  0.472D-07-0.196D-05-0.965D-05-0.142D-04-0.355D-04 0.201D-04
 Coeff-Com:  0.837D-03 0.364D-02 0.143D-01 0.506D-01 0.157D+00 0.309D+00
 Coeff-Com:  0.465D+00
 Coeff:      0.472D-07-0.196D-05-0.965D-05-0.142D-04-0.355D-04 0.201D-04
 Coeff:      0.837D-03 0.364D-02 0.143D-01 0.506D-01 0.157D+00 0.309D+00
 Coeff:      0.465D+00
 Gap=     0.150 Goal=   None    Shift=    0.000
 RMSDP=4.47D-09 MaxDP=1.86D-07 DE=-2.85D-11 OVMax= 7.26D-07

 Error on total polarization charges =  0.01956
 SCF Done:  E(RB-P86) =  -1020.44256465     A.U. after   13 cycles
            NFock= 13  Conv=0.45D-08     -V/T= 2.0042
 KE= 1.016156793444D+03 PE=-4.368180410777D+03 EE= 1.344502376591D+03
 Leave Link  502 at Sat Aug 21 09:33:56 2021, MaxMem=   104857600 cpu:             958.5 elap:              40.5
 (Enter /sw/arch/RedHatEnterpriseServer7/EB_production/2020/software/Gaussian/g16.c01/l601.exe)
 Copying SCF densities to generalized density rwf, IOpCl= 0 IROHF=0.

 **********************************************************************

            Population analysis using the SCF Density.

 **********************************************************************

 Orbital symmetries:
       Occupied  (A) (A) (A) (A) (A) (A) (A) (A) (A) (A) (A) (A)
                 (A) (A) (A) (A) (A) (A) (A) (A) (A) (A) (A) (A)
                 (A) (A) (A) (A) (A) (A) (A) (A) (A) (A) (A) (A)
                 (A) (A) (A) (A) (A) (A) (A) (A) (A) (A) (A) (A)
                 (A) (A) (A) (A) (A) (A) (A) (A) (A) (A)
       Virtual   (A) (A) (A) (A) (A) (A) (A) (A) (A) (A) (A) (A)
                 (A) (A) (A) (A) (A) (A) (A) (A) (A) (A) (A) (A)
                 (A) (A) (A) (A) (A) (A) (A) (A) (A) (A) (A) (A)
                 (A) (A) (A) (A) (A) (A) (A) (A) (A) (A) (A) (A)
                 (A) (A) (A) (A) (A) (A) (A) (A) (A) (A) (A) (A)
                 (A) (A) (A) (A) (A) (A) (A) (A) (A) (A) (A) (A)
                 (A) (A) (A) (A) (A) (A) (A) (A) (A) (A) (A) (A)
                 (A) (A) (A) (A) (A) (A) (A) (A) (A) (A) (A) (A)
                 (A) (A) (A) (A) (A) (A) (A) (A) (A) (A) (A) (A)
                 (A) (A) (A) (A) (A) (A) (A) (A) (A) (A) (A) (A)
                 (A) (A) (A) (A) (A) (A) (A) (A) (A) (A) (A) (A)
                 (A) (A) (A) (A) (A) (A) (A) (A) (A) (A) (A) (A)
                 (A) (A) (A) (A) (A) (A) (A) (A) (A) (A) (A) (A)
                 (A) (A) (A) (A) (A) (A) (A) (A) (A) (A) (A) (A)
                 (A) (A) (A) (A) (A) (A) (A) (A) (A) (A) (A) (A)
                 (A) (A) (A) (A) (A) (A) (A) (A) (A) (A) (A) (A)
                 (A) (A) (A) (A) (A) (A) (A) (A) (A) (A) (A) (A)
                 (A) (A) (A) (A) (A) (A) (A) (A) (A) (A) (A) (A)
                 (A) (A) (A) (A) (A) (A) (A) (A) (A) (A) (A) (A)
                 (A) (A) (A) (A) (A) (A) (A) (A) (A) (A) (A) (A)
                 (A) (A) (A) (A) (A) (A) (A) (A) (A) (A) (A) (A)
                 (A) (A) (A) (A) (A) (A) (A) (A) (A) (A) (A) (A)
                 (A) (A) (A) (A) (A) (A) (A) (A) (A) (A) (A) (A)
                 (A) (A) (A) (A) (A) (A) (A) (A) (A) (A) (A) (A)
                 (A) (A) (A) (A) (A) (A) (A) (A) (A) (A) (A) (A)
                 (A) (A) (A) (A) (A) (A) (A) (A) (A) (A) (A) (A)
                 (A) (A) (A) (A) (A) (A) (A)
 The electronic state is 1-A.
 Alpha  occ. eigenvalues -- -100.63948 -18.81393 -14.15207  -9.98395  -9.97700
 Alpha  occ. eigenvalues --   -9.97345  -9.95106  -9.95027  -9.94706  -9.91200
 Alpha  occ. eigenvalues --   -9.91139  -9.91133  -9.91015  -9.90319  -9.07823
 Alpha  occ. eigenvalues --   -6.89640  -6.89640  -6.89630  -0.98645  -0.96270
 Alpha  occ. eigenvalues --   -0.79133  -0.73501  -0.69083  -0.69004  -0.68936
 Alpha  occ. eigenvalues --   -0.68481  -0.63537  -0.62653  -0.57641  -0.56369
 Alpha  occ. eigenvalues --   -0.54343  -0.51026  -0.49407  -0.48758  -0.47619
 Alpha  occ. eigenvalues --   -0.45454  -0.43723  -0.42261  -0.40918  -0.40246
 Alpha  occ. eigenvalues --   -0.39262  -0.38639  -0.38322  -0.37091  -0.36491
 Alpha  occ. eigenvalues --   -0.35793  -0.35701  -0.35234  -0.35127  -0.33213
 Alpha  occ. eigenvalues --   -0.32322  -0.29812  -0.28861  -0.24350  -0.21428
 Alpha  occ. eigenvalues --   -0.20823  -0.20799  -0.20552
 Alpha virt. eigenvalues --   -0.05586  -0.04385   0.00250   0.01896   0.02539
 Alpha virt. eigenvalues --    0.03481   0.04091   0.04430   0.04686   0.05160
 Alpha virt. eigenvalues --    0.05987   0.06492   0.07968   0.08178   0.08881
 Alpha virt. eigenvalues --    0.08972   0.09452   0.09919   0.10121   0.10814
 Alpha virt. eigenvalues --    0.11343   0.12217   0.12456   0.13115   0.13339
 Alpha virt. eigenvalues --    0.13698   0.15087   0.15801   0.16146   0.17661
 Alpha virt. eigenvalues --    0.17751   0.18850   0.20190   0.20673   0.21153
 Alpha virt. eigenvalues --    0.21669   0.22037   0.22242   0.23083   0.23612
 Alpha virt. eigenvalues --    0.24483   0.25438   0.25923   0.26219   0.27294
 Alpha virt. eigenvalues --    0.28304   0.28988   0.29639   0.30596   0.31110
 Alpha virt. eigenvalues --    0.31720   0.31917   0.33233   0.33306   0.34544
 Alpha virt. eigenvalues --    0.35016   0.35845   0.36740   0.37290   0.37507
 Alpha virt. eigenvalues --    0.38458   0.38758   0.39089   0.39450   0.39625
 Alpha virt. eigenvalues --    0.40053   0.40313   0.40823   0.41717   0.41836
 Alpha virt. eigenvalues --    0.42171   0.42721   0.43316   0.43503   0.44199
 Alpha virt. eigenvalues --    0.44836   0.45328   0.45597   0.46156   0.46633
 Alpha virt. eigenvalues --    0.46985   0.47411   0.47957   0.48471   0.49130
 Alpha virt. eigenvalues --    0.50468   0.50766   0.52727   0.55570   0.56188
 Alpha virt. eigenvalues --    0.58637   0.59049   0.61258   0.62035   0.64026
 Alpha virt. eigenvalues --    0.64415   0.64801   0.66824   0.68021   0.68579
 Alpha virt. eigenvalues --    0.70187   0.73226   0.77859   0.78695   0.80424
 Alpha virt. eigenvalues --    0.80858   0.81583   0.83457   0.84710   0.85935
 Alpha virt. eigenvalues --    0.87055   0.88440   0.94310   1.01133   1.02692
 Alpha virt. eigenvalues --    1.06638   1.10851   1.14101   1.15681   1.15826
 Alpha virt. eigenvalues --    1.16884   1.17309   1.17639   1.18616   1.19164
 Alpha virt. eigenvalues --    1.19547   1.20636   1.21671   1.21928   1.22905
 Alpha virt. eigenvalues --    1.23592   1.24649   1.25440   1.26220   1.26659
 Alpha virt. eigenvalues --    1.27412   1.28135   1.29345   1.30520   1.31992
 Alpha virt. eigenvalues --    1.32601   1.34018   1.34652   1.34710   1.35606
 Alpha virt. eigenvalues --    1.37301   1.37899   1.38060   1.38980   1.39935
 Alpha virt. eigenvalues --    1.40390   1.41383   1.42658   1.43883   1.45008
 Alpha virt. eigenvalues --    1.45439   1.45650   1.46369   1.46768   1.47294
 Alpha virt. eigenvalues --    1.48247   1.51015   1.52336   1.53067   1.54137
 Alpha virt. eigenvalues --    1.55361   1.57207   1.58186   1.59376   1.61033
 Alpha virt. eigenvalues --    1.62282   1.64250   1.65005   1.67307   1.67794
 Alpha virt. eigenvalues --    1.68377   1.68806   1.69516   1.70199   1.70398
 Alpha virt. eigenvalues --    1.70655   1.70899   1.71885   1.72311   1.72911
 Alpha virt. eigenvalues --    1.74004   1.74498   1.74865   1.76920   1.76961
 Alpha virt. eigenvalues --    1.78791   1.79393   1.80461   1.81226   1.82076
 Alpha virt. eigenvalues --    1.83081   1.84316   1.85466   1.86102   1.88687
 Alpha virt. eigenvalues --    1.90284   1.91667   1.91910   1.93511   1.93990
 Alpha virt. eigenvalues --    1.94654   1.96821   1.98399   1.99508   2.00672
 Alpha virt. eigenvalues --    2.04163   2.05766   2.11096   2.13821   2.15255
 Alpha virt. eigenvalues --    2.15964   2.16183   2.18265   2.19373   2.20191
 Alpha virt. eigenvalues --    2.20811   2.21451   2.22813   2.23214   2.24907
 Alpha virt. eigenvalues --    2.26658   2.26835   2.27868   2.28218   2.28765
 Alpha virt. eigenvalues --    2.30402   2.30932   2.32463   2.34200   2.34383
 Alpha virt. eigenvalues --    2.35752   2.39678   2.40092   2.40853   2.41872
 Alpha virt. eigenvalues --    2.41960   2.43862   2.44867   2.46658   2.47979
 Alpha virt. eigenvalues --    2.48779   2.53332   2.53736   2.54931   2.55923
 Alpha virt. eigenvalues --    2.56582   2.57359   2.60135   2.61311   2.62539
 Alpha virt. eigenvalues --    2.63272   2.63828   2.66589   2.68361   2.69876
 Alpha virt. eigenvalues --    2.70199   2.72226   2.72819   2.75622   2.77024
 Alpha virt. eigenvalues --    2.79599   2.82661   2.85795   2.87791   2.89866
 Alpha virt. eigenvalues --    2.91162   2.91737   2.93503   2.95776   2.96530
 Alpha virt. eigenvalues --    2.99473   3.01025   3.02566   3.04637   3.05383
 Alpha virt. eigenvalues --    3.07316   3.07677   3.09527   3.10871   3.13178
 Alpha virt. eigenvalues --    3.14998   3.16999   3.19132   3.20588   3.23793
 Alpha virt. eigenvalues --    3.24038   3.26210   3.28557   3.29234   3.30969
 Alpha virt. eigenvalues --    3.31796   3.34050   3.35453   3.43066   3.57541
 Alpha virt. eigenvalues --    3.59305   3.60305   3.61653   3.89446   4.01883
 Alpha virt. eigenvalues --   21.06270  21.58200  21.62216  21.74363  21.79064
 Alpha virt. eigenvalues --   21.80749  21.81240  21.82753  21.82959  21.86489
 Alpha virt. eigenvalues --   21.97252  24.16834  31.66970  43.34205
          Condensed to atoms (all electrons):
               1          2          3          4          5          6
     1  C    5.361233   0.266582  -0.126651  -0.137159  -0.111143  -0.006611
     2  N    0.266582   6.409606   0.269761   0.258684   0.135230   0.009184
     3  C   -0.126651   0.269761   5.270295  -0.100487  -0.115974   0.017412
     4  C   -0.137159   0.258684  -0.100487   5.323569  -0.099924  -0.006329
     5  C   -0.111143   0.135230  -0.115974  -0.099924   5.758820   0.060042
     6  C   -0.006611   0.009184   0.017412  -0.006329   0.060042   5.216407
     7  O   -0.000788  -0.021071  -0.001773  -0.003382  -0.001170   0.183813
     8  C   -0.005614   0.002258   0.000606   0.000980  -0.013006  -0.052439
     9  C   -0.000182   0.000207   0.000002  -0.000006  -0.001969   0.016002
    10  C    0.000760   0.000094  -0.000004  -0.000003  -0.001400  -0.000390
    11  C   -0.000174  -0.000047  -0.000005  -0.000000   0.000673   0.000424
    12  C    0.000425   0.000147  -0.000046   0.000013  -0.002138   0.000623
    13  C   -0.004442  -0.001754  -0.000007   0.000090   0.021043  -0.002556
    14  Cl  -0.050076   0.005001  -0.045285  -0.050737   0.000464  -0.000137
    15  H    0.367461  -0.019945  -0.001340   0.010993   0.006139  -0.008077
    16  H    0.379968  -0.011397   0.010292  -0.002635  -0.023759   0.007949
    17  H    0.329603  -0.016740  -0.005557   0.005491   0.010065  -0.000907
    18  H   -0.005161  -0.015533   0.341356  -0.006703   0.009894  -0.000550
    19  H    0.011700  -0.016327   0.376159  -0.003332  -0.008554   0.000701
    20  H   -0.004922  -0.011782   0.379763   0.010647  -0.016746  -0.000056
    21  H    0.006104  -0.019175   0.000155   0.328505   0.010248   0.000523
    22  H    0.011029  -0.017380  -0.007462   0.372329   0.000312  -0.004781
    23  H   -0.005448  -0.017208   0.010300   0.385506  -0.016108   0.005754
    24  H   -0.012764  -0.007303   0.002017   0.011148   0.377951  -0.033491
    25  H    0.009982  -0.022316  -0.007321  -0.012717   0.377993  -0.022676
    26  H   -0.004574  -0.000985  -0.000150   0.008688  -0.041547   0.394120
    27  H    0.001508   0.003157  -0.000555  -0.000509  -0.055750   0.420976
    28  H   -0.000520  -0.000046   0.000000   0.000005   0.000334  -0.000144
    29  H    0.000006   0.000000   0.000000  -0.000000  -0.000007   0.000023
    30  H   -0.000001  -0.000000   0.000000  -0.000000   0.000009  -0.000020
    31  H    0.000004   0.000002  -0.000000   0.000000  -0.000102   0.000051
    32  H   -0.000182  -0.000087  -0.000021  -0.000012  -0.007084   0.017259
               7          8          9         10         11         12
     1  C   -0.000788  -0.005614  -0.000182   0.000760  -0.000174   0.000425
     2  N   -0.021071   0.002258   0.000207   0.000094  -0.000047   0.000147
     3  C   -0.001773   0.000606   0.000002  -0.000004  -0.000005  -0.000046
     4  C   -0.003382   0.000980  -0.000006  -0.000003  -0.000000   0.000013
     5  C   -0.001170  -0.013006  -0.001969  -0.001400   0.000673  -0.002138
     6  C    0.183813  -0.052439   0.016002  -0.000390   0.000424   0.000623
     7  O    7.927447   0.313840  -0.058253   0.004067   0.002062   0.006672
     8  C    0.313840   5.124099   0.317421   0.065999  -0.133258   0.084237
     9  C   -0.058253   0.317421   5.430198   0.288773   0.035078  -0.107540
    10  C    0.004067   0.065999   0.288773   5.127530   0.361723   0.009938
    11  C    0.002062  -0.133258   0.035078   0.361723   5.165805   0.383799
    12  C    0.006672   0.084237  -0.107540   0.009938   0.383799   5.149731
    13  C   -0.082010   0.216042  -0.054197  -0.109229   0.026428   0.227326
    14  Cl  -0.000000   0.000002  -0.000001  -0.000000   0.000000  -0.000000
    15  H   -0.000979   0.002254   0.000621  -0.000436   0.000007   0.000008
    16  H    0.002153   0.000046  -0.001052   0.000112  -0.000009  -0.000049
    17  H    0.000799  -0.000333  -0.000058   0.000017   0.000003  -0.000010
    18  H    0.000040  -0.000009  -0.000001  -0.000000   0.000000  -0.000000
    19  H    0.000036  -0.000010   0.000001  -0.000000   0.000000  -0.000001
    20  H   -0.000126   0.000232   0.000007   0.000003  -0.000003   0.000016
    21  H   -0.000016   0.000008  -0.000001  -0.000000   0.000000   0.000000
    22  H    0.000171  -0.000037  -0.000001   0.000000  -0.000000   0.000000
    23  H   -0.000020   0.000112   0.000027  -0.000002   0.000000  -0.000001
    24  H   -0.015898   0.001345  -0.000934   0.000586  -0.000613   0.002206
    25  H    0.006887  -0.001136  -0.000120  -0.000024   0.000028  -0.000062
    26  H   -0.027693   0.005915  -0.000539   0.000070  -0.000019   0.000149
    27  H   -0.032680  -0.018921  -0.001675   0.000306  -0.000197  -0.000883
    28  H    0.003479  -0.076811   0.433725  -0.046633   0.015235  -0.004502
    29  H   -0.000104   0.021017  -0.069781   0.446631  -0.068353   0.018151
    30  H    0.000015  -0.004667   0.017498  -0.062915   0.433345  -0.063242
    31  H   -0.000208   0.012897  -0.001964   0.013709  -0.056466   0.419802
    32  H   -0.004522  -0.051567   0.003513   0.000306   0.008378  -0.015985
              13         14         15         16         17         18
     1  C   -0.004442  -0.050076   0.367461   0.379968   0.329603  -0.005161
     2  N   -0.001754   0.005001  -0.019945  -0.011397  -0.016740  -0.015533
     3  C   -0.000007  -0.045285  -0.001340   0.010292  -0.005557   0.341356
     4  C    0.000090  -0.050737   0.010993  -0.002635   0.005491  -0.006703
     5  C    0.021043   0.000464   0.006139  -0.023759   0.010065   0.009894
     6  C   -0.002556  -0.000137  -0.008077   0.007949  -0.000907  -0.000550
     7  O   -0.082010  -0.000000  -0.000979   0.002153   0.000799   0.000040
     8  C    0.216042   0.000002   0.002254   0.000046  -0.000333  -0.000009
     9  C   -0.054197  -0.000001   0.000621  -0.001052  -0.000058  -0.000001
    10  C   -0.109229  -0.000000  -0.000436   0.000112   0.000017  -0.000000
    11  C    0.026428   0.000000   0.000007  -0.000009   0.000003   0.000000
    12  C    0.227326  -0.000000   0.000008  -0.000049  -0.000010  -0.000000
    13  C    5.619503   0.000001   0.000445   0.000389   0.000053   0.000008
    14  Cl   0.000001  17.810524   0.001405   0.001018   0.057485   0.056707
    15  H    0.000445   0.001405   0.490619  -0.016715  -0.018503  -0.000944
    16  H    0.000389   0.001018  -0.016715   0.477793  -0.016990   0.000525
    17  H    0.000053   0.057485  -0.018503  -0.016990   0.507147  -0.002094
    18  H    0.000008   0.056707  -0.000944   0.000525  -0.002094   0.498049
    19  H    0.000012   0.000807  -0.000134  -0.000422   0.000767  -0.019279
    20  H    0.000014   0.001297   0.002604   0.000047  -0.001765  -0.017450
    21  H    0.000004   0.058735   0.000252  -0.001199  -0.007105  -0.003804
    22  H    0.000007   0.001478  -0.000337   0.000159   0.000211  -0.000417
    23  H   -0.000058   0.000962   0.000139   0.001953  -0.001356   0.000396
    24  H    0.001224   0.000018   0.001829   0.001047  -0.000220  -0.000103
    25  H    0.000281   0.000009   0.000217  -0.000097  -0.000291  -0.000010
    26  H    0.000917   0.000025   0.000413  -0.001608  -0.000005  -0.000009
    27  H    0.003797  -0.000000  -0.000120   0.000293   0.000061   0.000018
    28  H    0.016951   0.000000   0.000110   0.000236   0.000031  -0.000000
    29  H   -0.005603  -0.000000  -0.000004  -0.000001  -0.000000  -0.000000
    30  H    0.020153   0.000000  -0.000000  -0.000000   0.000000   0.000000
    31  H   -0.044680  -0.000000  -0.000002   0.000001  -0.000000  -0.000000
    32  H    0.396778   0.000000   0.000020  -0.000034   0.000005  -0.000001
              19         20         21         22         23         24
     1  C    0.011700  -0.004922   0.006104   0.011029  -0.005448  -0.012764
     2  N   -0.016327  -0.011782  -0.019175  -0.017380  -0.017208  -0.007303
     3  C    0.376159   0.379763   0.000155  -0.007462   0.010300   0.002017
     4  C   -0.003332   0.010647   0.328505   0.372329   0.385506   0.011148
     5  C   -0.008554  -0.016746   0.010248   0.000312  -0.016108   0.377951
     6  C    0.000701  -0.000056   0.000523  -0.004781   0.005754  -0.033491
     7  O    0.000036  -0.000126  -0.000016   0.000171  -0.000020  -0.015898
     8  C   -0.000010   0.000232   0.000008  -0.000037   0.000112   0.001345
     9  C    0.000001   0.000007  -0.000001  -0.000001   0.000027  -0.000934
    10  C   -0.000000   0.000003  -0.000000   0.000000  -0.000002   0.000586
    11  C    0.000000  -0.000003   0.000000  -0.000000   0.000000  -0.000613
    12  C   -0.000001   0.000016   0.000000   0.000000  -0.000001   0.002206
    13  C    0.000012   0.000014   0.000004   0.000007  -0.000058   0.001224
    14  Cl   0.000807   0.001297   0.058735   0.001478   0.000962   0.000018
    15  H   -0.000134   0.002604   0.000252  -0.000337   0.000139   0.001829
    16  H   -0.000422   0.000047  -0.001199   0.000159   0.001953   0.001047
    17  H    0.000767  -0.001765  -0.007105   0.000211  -0.001356  -0.000220
    18  H   -0.019279  -0.017450  -0.003804  -0.000417   0.000396  -0.000103
    19  H    0.494259  -0.019868  -0.001533   0.002275   0.000110  -0.001554
    20  H   -0.019868   0.492747   0.000774  -0.000079  -0.000381   0.005739
    21  H   -0.001533   0.000774   0.496301  -0.015270  -0.016178  -0.000298
    22  H    0.002275  -0.000079  -0.015270   0.488904  -0.020686   0.000275
    23  H    0.000110  -0.000381  -0.016178  -0.020686   0.486346  -0.000076
    24  H   -0.001554   0.005739  -0.000298   0.000275  -0.000076   0.445213
    25  H    0.004870  -0.000973   0.000147   0.003070   0.000289  -0.014562
    26  H    0.000013  -0.000007   0.000111  -0.000337   0.001798   0.001714
    27  H   -0.000026  -0.000029  -0.000040   0.000064   0.000083   0.001142
    28  H   -0.000000  -0.000000  -0.000000   0.000000   0.000001  -0.000026
    29  H   -0.000000   0.000000  -0.000000   0.000000  -0.000000   0.000001
    30  H    0.000000  -0.000000  -0.000000  -0.000000   0.000000  -0.000005
    31  H   -0.000000   0.000000  -0.000000   0.000000  -0.000000   0.000102
    32  H    0.000002   0.000007   0.000001   0.000001  -0.000000  -0.001923
              25         26         27         28         29         30
     1  C    0.009982  -0.004574   0.001508  -0.000520   0.000006  -0.000001
     2  N   -0.022316  -0.000985   0.003157  -0.000046   0.000000  -0.000000
     3  C   -0.007321  -0.000150  -0.000555   0.000000   0.000000   0.000000
     4  C   -0.012717   0.008688  -0.000509   0.000005  -0.000000  -0.000000
     5  C    0.377993  -0.041547  -0.055750   0.000334  -0.000007   0.000009
     6  C   -0.022676   0.394120   0.420976  -0.000144   0.000023  -0.000020
     7  O    0.006887  -0.027693  -0.032680   0.003479  -0.000104   0.000015
     8  C   -0.001136   0.005915  -0.018921  -0.076811   0.021017  -0.004667
     9  C   -0.000120  -0.000539  -0.001675   0.433725  -0.069781   0.017498
    10  C   -0.000024   0.000070   0.000306  -0.046633   0.446631  -0.062915
    11  C    0.000028  -0.000019  -0.000197   0.015235  -0.068353   0.433345
    12  C   -0.000062   0.000149  -0.000883  -0.004502   0.018151  -0.063242
    13  C    0.000281   0.000917   0.003797   0.016951  -0.005603   0.020153
    14  Cl   0.000009   0.000025  -0.000000   0.000000  -0.000000   0.000000
    15  H    0.000217   0.000413  -0.000120   0.000110  -0.000004  -0.000000
    16  H   -0.000097  -0.001608   0.000293   0.000236  -0.000001  -0.000000
    17  H   -0.000291  -0.000005   0.000061   0.000031  -0.000000   0.000000
    18  H   -0.000010  -0.000009   0.000018  -0.000000  -0.000000   0.000000
    19  H    0.004870   0.000013  -0.000026  -0.000000  -0.000000   0.000000
    20  H   -0.000973  -0.000007  -0.000029  -0.000000   0.000000  -0.000000
    21  H    0.000147   0.000111  -0.000040  -0.000000  -0.000000  -0.000000
    22  H    0.003070  -0.000337   0.000064   0.000000   0.000000  -0.000000
    23  H    0.000289   0.001798   0.000083   0.000001  -0.000000   0.000000
    24  H   -0.014562   0.001714   0.001142  -0.000026   0.000001  -0.000005
    25  H    0.471219   0.003048  -0.000445  -0.000000  -0.000000  -0.000000
    26  H    0.003048   0.475244  -0.014860  -0.000093  -0.000000  -0.000000
    27  H   -0.000445  -0.014860   0.494944   0.000048   0.000001   0.000001
    28  H   -0.000000  -0.000093   0.000048   0.517957  -0.008643  -0.000159
    29  H   -0.000000  -0.000000   0.000001  -0.008643   0.531962  -0.007217
    30  H   -0.000000  -0.000000   0.000001  -0.000159  -0.007217   0.532867
    31  H   -0.000007   0.000001   0.000021   0.000023  -0.000204  -0.006885
    32  H    0.000394   0.000182   0.000046  -0.000133  -0.000003  -0.000203
              31         32
     1  C    0.000004  -0.000182
     2  N    0.000002  -0.000087
     3  C   -0.000000  -0.000021
     4  C    0.000000  -0.000012
     5  C   -0.000102  -0.007084
     6  C    0.000051   0.017259
     7  O   -0.000208  -0.004522
     8  C    0.012897  -0.051567
     9  C   -0.001964   0.003513
    10  C    0.013709   0.000306
    11  C   -0.056466   0.008378
    12  C    0.419802  -0.015985
    13  C   -0.044680   0.396778
    14  Cl  -0.000000   0.000000
    15  H   -0.000002   0.000020
    16  H    0.000001  -0.000034
    17  H   -0.000000   0.000005
    18  H   -0.000000  -0.000001
    19  H   -0.000000   0.000002
    20  H    0.000000   0.000007
    21  H   -0.000000   0.000001
    22  H    0.000000   0.000001
    23  H   -0.000000  -0.000000
    24  H    0.000102  -0.001923
    25  H   -0.000007   0.000394
    26  H    0.000001   0.000182
    27  H    0.000021   0.000046
    28  H    0.000023  -0.000133
    29  H   -0.000204  -0.000003
    30  H   -0.006885  -0.000203
    31  H    0.526425  -0.004841
    32  H   -0.004841   0.477981
 Mulliken charges:
               1
     1  C   -0.269955
     2  N   -0.160818
     3  C   -0.265479
     4  C   -0.292713
     5  C   -0.252837
     6  C   -0.212097
     7  O   -0.200789
     8  C    0.188499
     9  C   -0.244798
    10  C   -0.099585
    11  C   -0.173846
[...]
 Alpha virt. eigenvalues --    2.58937   2.60772   2.62681   2.63867   2.64603
 Alpha virt. eigenvalues --    2.65575   2.66793   2.68193   2.69185   2.70817
 Alpha virt. eigenvalues --    2.71474   2.73876   2.74951   2.77857   2.79487
 Alpha virt. eigenvalues --    2.81329   2.86562   2.88004   2.89762   2.91276
 Alpha virt. eigenvalues --    2.92649   2.93763   2.94409   2.95856   2.97997
 Alpha virt. eigenvalues --    2.99382   3.01308   3.03841   3.06473   3.07580
 Alpha virt. eigenvalues --    3.08544   3.10513   3.11806   3.14266   3.15963
 Alpha virt. eigenvalues --    3.19039   3.20386   3.21826   3.22340   3.22815
 Alpha virt. eigenvalues --    3.24758   3.27393   3.29982   3.31387   3.31972
 Alpha virt. eigenvalues --    3.33929   3.36608   3.38520   3.44094   3.58235
 Alpha virt. eigenvalues --    3.59165   3.59822   3.60152   3.89103   4.05095
 Alpha virt. eigenvalues --   21.08630  21.58072  21.63646  21.78199  21.81225
 Alpha virt. eigenvalues --   21.83034  21.83690  21.84402  21.85480  21.88024
 Alpha virt. eigenvalues --   21.97432  24.13640  31.70214  43.35596
          Condensed to atoms (all electrons):
               1          2          3          4          5          6
     1  C    5.272428   0.249054  -0.099749  -0.115086  -0.099450  -0.013526
     2  N    0.249054   6.579374   0.257363   0.213408   0.090334  -0.003135
     3  C   -0.099749   0.257363   5.203054  -0.092016  -0.110325   0.014784
     4  C   -0.115086   0.213408  -0.092016   5.263671  -0.075461   0.021113
     5  C   -0.099450   0.090334  -0.110325  -0.075461   5.781580   0.043336
     6  C   -0.013526  -0.003135   0.014784   0.021113   0.043336   5.255388
     7  O   -0.001531  -0.005079  -0.000681  -0.013188  -0.024154   0.180397
     8  C   -0.007576  -0.003046   0.000370   0.001526   0.011981  -0.084986
     9  C    0.004379   0.000441  -0.000019  -0.000062  -0.008136   0.022236
    10  C   -0.000873   0.000158  -0.000017   0.000062  -0.000670  -0.001741
    11  C    0.000288  -0.000005  -0.000003  -0.000024  -0.000638   0.001909
    12  C    0.000114  -0.000036  -0.000043   0.000110   0.001467  -0.003413
    13  C   -0.003713  -0.000384  -0.000013  -0.000828   0.010749   0.004705
    14  Cl  -0.035300   0.003534  -0.035731  -0.035173   0.000045  -0.000012
    15  H    0.383081  -0.018149  -0.003354   0.009655  -0.003662  -0.003134
    16  H    0.376137  -0.014684   0.009209  -0.002617  -0.010613  -0.004062
    17  H    0.347562  -0.019950  -0.006872  -0.001731   0.008744   0.000377
    18  H   -0.003972  -0.021166   0.350427  -0.006969   0.010585  -0.000879
    19  H    0.009883  -0.018287   0.387475  -0.004739  -0.010705   0.000437
    20  H   -0.007094  -0.016760   0.385383   0.009882  -0.006729   0.000456
    21  H   -0.002056  -0.021036  -0.002238   0.344644   0.011223  -0.000459
    22  H    0.009420  -0.018613  -0.004776   0.379546   0.002255  -0.007663
    23  H   -0.002047  -0.015637   0.008314   0.387865  -0.025064   0.009032
    24  H   -0.013224  -0.018003  -0.002562   0.010659   0.393896  -0.026974
    25  H    0.010298  -0.023069  -0.003443  -0.011006   0.379622  -0.017796
    26  H   -0.001074  -0.011272  -0.000588   0.012959  -0.025795   0.394804
    27  H    0.000454   0.007202  -0.000585  -0.000902  -0.076946   0.437439
    28  H   -0.000254   0.000051   0.000002  -0.000151  -0.000037  -0.000016
    29  H    0.000005   0.000001   0.000000   0.000000  -0.000004   0.000020
    30  H   -0.000002  -0.000000   0.000000  -0.000000   0.000008  -0.000020
    31  H   -0.000015   0.000002  -0.000000   0.000000  -0.000046  -0.000033
    32  H    0.000303   0.000188  -0.000001  -0.000148  -0.011220   0.022119
               7          8          9         10         11         12
     1  C   -0.001531  -0.007576   0.004379  -0.000873   0.000288   0.000114
     2  N   -0.005079  -0.003046   0.000441   0.000158  -0.000005  -0.000036
     3  C   -0.000681   0.000370  -0.000019  -0.000017  -0.000003  -0.000043
     4  C   -0.013188   0.001526  -0.000062   0.000062  -0.000024   0.000110
     5  C   -0.024154   0.011981  -0.008136  -0.000670  -0.000638   0.001467
     6  C    0.180397  -0.084986   0.022236  -0.001741   0.001909  -0.003413
     7  O    7.942514   0.320675  -0.076817   0.005570   0.001379   0.006401
     8  C    0.320675   5.291312   0.315773   0.059002  -0.130781   0.109491
     9  C   -0.076817   0.315773   5.406688   0.305905   0.022419  -0.119003
    10  C    0.005570   0.059002   0.305905   5.175869   0.344155   0.024479
    11  C    0.001379  -0.130781   0.022419   0.344155   5.198267   0.355185
    12  C    0.006401   0.109491  -0.119003   0.024479   0.355185   5.226443
    13  C   -0.083060   0.137487  -0.041393  -0.123880   0.038842   0.195781
    14  Cl  -0.000001   0.000007  -0.000003  -0.000000  -0.000000   0.000000
    15  H   -0.002221   0.004130  -0.000149   0.000565  -0.000379   0.000813
    16  H    0.007821   0.003207  -0.006340  -0.000119   0.000117  -0.000437
    17  H    0.000531  -0.000634   0.000150   0.000038   0.000003  -0.000018
    18  H    0.000047  -0.000020  -0.000005   0.000000  -0.000000   0.000001
    19  H   -0.000001   0.000002   0.000005  -0.000000   0.000000  -0.000002
    20  H   -0.000021   0.000192  -0.000024   0.000002  -0.000001   0.000015
    21  H    0.000042   0.000019  -0.000003  -0.000001   0.000000  -0.000000
    22  H    0.000615  -0.000063   0.000007  -0.000001   0.000000  -0.000002
    23  H    0.004470  -0.000550  -0.000016   0.000002   0.000002  -0.000017
    24  H   -0.009956   0.002682  -0.001783   0.000752  -0.000671   0.003867
    25  H    0.005651  -0.001057  -0.000095  -0.000024   0.000023  -0.000154
    26  H   -0.032069   0.005594  -0.000959   0.000127  -0.000034   0.000222
    27  H   -0.027292  -0.025619  -0.000582   0.000156  -0.000090  -0.000595
    28  H    0.006558  -0.082418   0.433737  -0.044096   0.015250  -0.005485
    29  H   -0.000147   0.020869  -0.069454   0.447172  -0.068398   0.018093
    30  H    0.000012  -0.005392   0.018021  -0.065476   0.439728  -0.065482
    31  H   -0.000197   0.013068  -0.001892   0.013811  -0.057079   0.424102
    32  H   -0.004823  -0.054901   0.002925   0.000010   0.008273  -0.020343
              13         14         15         16         17         18
     1  C   -0.003713  -0.035300   0.383081   0.376137   0.347562  -0.003972
     2  N   -0.000384   0.003534  -0.018149  -0.014684  -0.019950  -0.021166
     3  C   -0.000013  -0.035731  -0.003354   0.009209  -0.006872   0.350427
     4  C   -0.000828  -0.035173   0.009655  -0.002617  -0.001731  -0.006969
     5  C    0.010749   0.000045  -0.003662  -0.010613   0.008744   0.010585
     6  C    0.004705  -0.000012  -0.003134  -0.004062   0.000377  -0.000879
     7  O   -0.083060  -0.000001  -0.002221   0.007821   0.000531   0.000047
     8  C    0.137487   0.000007   0.004130   0.003207  -0.000634  -0.000020
     9  C   -0.041393  -0.000003  -0.000149  -0.006340   0.000150  -0.000005
    10  C   -0.123880  -0.000000   0.000565  -0.000119   0.000038   0.000000
    11  C    0.038842  -0.000000  -0.000379   0.000117   0.000003  -0.000000
    12  C    0.195781   0.000000   0.000813  -0.000437  -0.000018   0.000001
    13  C    5.650981   0.000000  -0.001150   0.003577  -0.000046   0.000010
    14  Cl   0.000000  17.836778   0.000761   0.000574   0.046449   0.046474
    15  H   -0.001150   0.000761   0.477210  -0.019396  -0.018964  -0.000599
    16  H    0.003577   0.000574  -0.019396   0.470461  -0.016496   0.000612
    17  H   -0.000046   0.046449  -0.018964  -0.016496   0.517718  -0.000526
    18  H    0.000010   0.046474  -0.000599   0.000612  -0.000526   0.517420
    19  H    0.000007   0.000626  -0.000085  -0.000411   0.000590  -0.018167
    20  H    0.000012   0.000802   0.002955  -0.000013  -0.001233  -0.018190
    21  H    0.000016   0.047112   0.000360  -0.000911  -0.002717  -0.001986
    22  H    0.000021   0.000674  -0.000355   0.000009   0.000399  -0.000268
    23  H    0.000003   0.000503  -0.000036   0.002497  -0.000789   0.000508
    24  H    0.000325   0.000007   0.002968   0.001021  -0.000190  -0.000295
    25  H    0.000092   0.000005   0.000008  -0.000165  -0.000267   0.000258
    26  H    0.001153   0.000005  -0.000065   0.000412   0.000016  -0.000016
    27  H    0.005573   0.000000   0.000031   0.000106   0.000045   0.000023
    28  H    0.018312   0.000000  -0.000052   0.001786   0.000042  -0.000000
    29  H   -0.005800   0.000000   0.000005  -0.000029  -0.000000   0.000000
    30  H    0.020421  -0.000000  -0.000002   0.000001  -0.000000  -0.000000
    31  H   -0.047907   0.000000   0.000015   0.000002   0.000000   0.000000
    32  H    0.402686  -0.000000  -0.000118  -0.000003   0.000004  -0.000001
              19         20         21         22         23         24
     1  C    0.009883  -0.007094  -0.002056   0.009420  -0.002047  -0.013224
     2  N   -0.018287  -0.016760  -0.021036  -0.018613  -0.015637  -0.018003
     3  C    0.387475   0.385383  -0.002238  -0.004776   0.008314  -0.002562
     4  C   -0.004739   0.009882   0.344644   0.379546   0.387865   0.010659
     5  C   -0.010705  -0.006729   0.011223   0.002255  -0.025064   0.393896
     6  C    0.000437   0.000456  -0.000459  -0.007663   0.009032  -0.026974
     7  O   -0.000001  -0.000021   0.000042   0.000615   0.004470  -0.009956
     8  C    0.000002   0.000192   0.000019  -0.000063  -0.000550   0.002682
     9  C    0.000005  -0.000024  -0.000003   0.000007  -0.000016  -0.001783
    10  C   -0.000000   0.000002  -0.000001  -0.000001   0.000002   0.000752
    11  C    0.000000  -0.000001   0.000000   0.000000   0.000002  -0.000671
    12  C   -0.000002   0.000015  -0.000000  -0.000002  -0.000017   0.003867
    13  C    0.000007   0.000012   0.000016   0.000021   0.000003   0.000325
    14  Cl   0.000626   0.000802   0.047112   0.000674   0.000503   0.000007
    15  H   -0.000085   0.002955   0.000360  -0.000355  -0.000036   0.002968
    16  H   -0.000411  -0.000013  -0.000911   0.000009   0.002497   0.001021
    17  H    0.000590  -0.001233  -0.002717   0.000399  -0.000789  -0.000190
    18  H   -0.018167  -0.018190  -0.001986  -0.000268   0.000508  -0.000295
    19  H    0.477110  -0.021042  -0.000755   0.002529   0.000021  -0.000767
    20  H   -0.021042   0.479738   0.000518  -0.000073  -0.000377   0.004550
    21  H   -0.000755   0.000518   0.515281  -0.016782  -0.017636  -0.000429
    22  H    0.002529  -0.000073  -0.016782   0.473004  -0.018883  -0.000030
    23  H    0.000021  -0.000377  -0.017636  -0.018883   0.467135   0.000020
    24  H   -0.000767   0.004550  -0.000429  -0.000030   0.000020   0.427055
    25  H    0.005763  -0.001977  -0.000026   0.001925   0.000673  -0.013453
    26  H    0.000124  -0.000001   0.000151  -0.001371  -0.005925   0.001913
    27  H   -0.000043  -0.000028  -0.000018   0.000140   0.000739  -0.000840
    28  H   -0.000000  -0.000001   0.000001   0.000003   0.000065  -0.000077
    29  H   -0.000000   0.000000  -0.000000  -0.000000  -0.000000   0.000002
    30  H    0.000000  -0.000000   0.000000   0.000000   0.000000  -0.000007
    31  H   -0.000000  -0.000000  -0.000000  -0.000000   0.000000   0.000101
    32  H    0.000006  -0.000009   0.000002   0.000010  -0.000003  -0.002061
              25         26         27         28         29         30
     1  C    0.010298  -0.001074   0.000454  -0.000254   0.000005  -0.000002
     2  N   -0.023069  -0.011272   0.007202   0.000051   0.000001  -0.000000
     3  C   -0.003443  -0.000588  -0.000585   0.000002   0.000000   0.000000
     4  C   -0.011006   0.012959  -0.000902  -0.000151   0.000000  -0.000000
     5  C    0.379622  -0.025795  -0.076946  -0.000037  -0.000004   0.000008
     6  C   -0.017796   0.394804   0.437439  -0.000016   0.000020  -0.000020
     7  O    0.005651  -0.032069  -0.027292   0.006558  -0.000147   0.000012
     8  C   -0.001057   0.005594  -0.025619  -0.082418   0.020869  -0.005392
     9  C   -0.000095  -0.000959  -0.000582   0.433737  -0.069454   0.018021
    10  C   -0.000024   0.000127   0.000156  -0.044096   0.447172  -0.065476
    11  C    0.000023  -0.000034  -0.000090   0.015250  -0.068398   0.439728
    12  C   -0.000154   0.000222  -0.000595  -0.005485   0.018093  -0.065482
    13  C    0.000092   0.001153   0.005573   0.018312  -0.005800   0.020421
    14  Cl   0.000005   0.000005   0.000000   0.000000   0.000000  -0.000000
    15  H    0.000008  -0.000065   0.000031  -0.000052   0.000005  -0.000002
    16  H   -0.000165   0.000412   0.000106   0.001786  -0.000029   0.000001
    17  H   -0.000267   0.000016   0.000045   0.000042  -0.000000  -0.000000
    18  H    0.000258  -0.000016   0.000023  -0.000000   0.000000  -0.000000
    19  H    0.005763   0.000124  -0.000043  -0.000000  -0.000000   0.000000
    20  H   -0.001977  -0.000001  -0.000028  -0.000001   0.000000  -0.000000
    21  H   -0.000026   0.000151  -0.000018   0.000001  -0.000000   0.000000
    22  H    0.001925  -0.001371   0.000140   0.000003  -0.000000   0.000000
    23  H    0.000673  -0.005925   0.000739   0.000065  -0.000000   0.000000
    24  H   -0.013453   0.001913  -0.000840  -0.000077   0.000002  -0.000007
    25  H    0.452097   0.001014   0.001147   0.000004  -0.000000  -0.000000
    26  H    0.001014   0.464001  -0.017251  -0.000165   0.000000  -0.000000
    27  H    0.001147  -0.017251   0.482675   0.000074   0.000000   0.000001
    28  H    0.000004  -0.000165   0.000074   0.503938  -0.008218  -0.000087
    29  H   -0.000000   0.000000   0.000000  -0.008218   0.523007  -0.006985
    30  H   -0.000000  -0.000000   0.000001  -0.000087  -0.006985   0.521479
    31  H   -0.000004   0.000001   0.000012   0.000017  -0.000185  -0.006742
    32  H    0.000582   0.000131   0.001090  -0.000080  -0.000004  -0.000146
              31         32
     1  C   -0.000015   0.000303
     2  N    0.000002   0.000188
     3  C   -0.000000  -0.000001
     4  C    0.000000  -0.000148
     5  C   -0.000046  -0.011220
     6  C   -0.000033   0.022119
     7  O   -0.000197  -0.004823
     8  C    0.013068  -0.054901
     9  C   -0.001892   0.002925
    10  C    0.013811   0.000010
    11  C   -0.057079   0.008273
    12  C    0.424102  -0.020343
    13  C   -0.047907   0.402686
    14  Cl   0.000000  -0.000000
    15  H    0.000015  -0.000118
    16  H    0.000002  -0.000003
    17  H    0.000000   0.000004
    18  H    0.000000  -0.000001
    19  H   -0.000000   0.000006
    20  H   -0.000000  -0.000009
    21  H   -0.000000   0.000002
    22  H   -0.000000   0.000010
    23  H    0.000000  -0.000003
    24  H    0.000101  -0.002061
    25  H   -0.000004   0.000582
    26  H    0.000001   0.000131
    27  H    0.000012   0.001090
    28  H    0.000017  -0.000080
    29  H   -0.000185  -0.000004
    30  H   -0.006742  -0.000146
    31  H    0.516935  -0.004835
    32  H   -0.004835   0.465540
 Mulliken charges:
               1
     1  C   -0.256864
     2  N   -0.172798
     3  C   -0.253364
     4  C   -0.294999
     5  C   -0.256170
     6  C   -0.240703
     7  O   -0.201446
     8  C    0.099656
     9  C   -0.205952
    10  C   -0.140938
    11  C   -0.167739
    12  C   -0.151554
    13  C   -0.182578
    14  Cl  -0.878133
    15  H    0.189313
    16  H    0.198748
    17  H    0.147768
    18  H    0.146693
    19  H    0.190426
    20  H    0.189067
    21  H    0.147682
    22  H    0.198323
    23  H    0.205132
    24  H    0.241505
    25  H    0.213374
    26  H    0.213957
    27  H    0.213885
    28  H    0.161298
    29  H    0.150049
    30  H    0.150672
    31  H    0.150869
    32  H    0.194825
 Sum of Mulliken charges =  -0.00000
 Mulliken charges with hydrogens summed into heavy atoms:
               1
     1  C    0.278965
     2  N   -0.172798
     3  C    0.272821
     4  C    0.256137
     5  C    0.198709
     6  C    0.187139
     7  O   -0.201446
     8  C    0.099656
     9  C   -0.044654
    10  C    0.009111
    11  C   -0.017068
    12  C   -0.000686
    13  C    0.012247
    14  Cl  -0.878133
 Electronic spatial extent (au):  <R**2>=           4788.3574
 Charge=              0.0000 electrons
 Dipole moment (field-independent basis, Debye):
    X=            -13.9292    Y=            -11.7933    Z=              2.2625  Tot=             18.3909
 Quadrupole moment (field-independent basis, Debye-Ang):
   XX=           -173.7057   YY=            -88.8206   ZZ=            -89.3723
   XY=            -39.3138   XZ=             -3.7743   YZ=             -3.3154
 Traceless Quadrupole moment (field-independent basis, Debye-Ang):
   XX=            -56.4062   YY=             28.4789   ZZ=             27.9272
   XY=            -39.3138   XZ=             -3.7743   YZ=             -3.3154
 Octapole moment (field-independent basis, Debye-Ang**2):
  XXX=           -423.4933  YYY=            -60.0505  ZZZ=              4.7643  XYY=            -58.9387
  XXY=           -157.5210  XXZ=             26.1295  XZZ=              4.8398  YZZ=            -12.0201
  YYZ=             -5.2920  XYZ=              4.7296
 Hexadecapole moment (field-independent basis, Debye-Ang**3):
 XXXX=          -7151.8869 YYYY=           -986.2014 ZZZZ=           -509.3970 XXXY=           -845.5708
 XXXZ=           -119.6585 YYYX=           -167.2663 YYYZ=            -10.4139 ZZZX=             -4.5789
 ZZZY=             -7.1078 XXYY=          -1184.5031 XXZZ=           -908.2017 YYZZ=           -246.0219
 XXYZ=            -14.1225 YYXZ=              8.7664 ZZXY=            -23.9038
 N-N= 9.961348935114D+02 E-N=-4.386108354367D+03  KE= 1.016256104739D+03
 Unable to Open any file for archive entry.
 1\1\GINC-TCN1053\SP\RBP86\TZVP\C11H18Cl1N1O1\ELENAA\21-Aug-2021\0\\# B
 P86/TZVP SCRF=COSMORS geom=CHECKPOINT guess=CHECKPOINT\\COSMO-file for
  #TZVAOIBSPKDYDC-UHFFFAOYSA-M\\0,1\C,0,0.2997735598,-1.8062139128,-0.0
 91914892\N,0,-0.9281594028,-2.2950710762,0.6480920385\C,0,-0.467548243
 4,-3.0916161888,1.8508846866\C,0,-1.717969946,-3.2062884549,-0.2601384
 224\C,0,-1.7736080031,-1.1321845179,1.1596957567\C,0,-2.5218690781,-0.
 3154879923,0.1112329665\O,0,-1.6810558487,0.3568654779,-0.8397990636\C
 ,0,-0.895151857,1.413901482,-0.4149354395\C,0,0.1079870135,1.807842962
 9,-1.3156666297\C,0,0.9468095995,2.8769739037,-0.9975737577\C,0,0.7994
 673343,3.5592797109,0.2190502414\C,0,-0.2013264368,3.1602924647,1.1099
 526375\C,0,-1.0538196738,2.0900121688,0.8040704447\Cl,0,1.2570833331,-
 5.3183218831,-0.4166764039\H,0,0.8548228587,-1.129488212,0.5676348472\
 H,0,-0.0221833898,-1.274494938,-0.9908484002\H,0,0.8988744998,-2.69216
 97387,-0.3451165877\H,0,0.1688511908,-3.9082974692,1.4809790328\H,0,-1
 .3486637529,-3.4874761449,2.3685300254\H,0,0.0949668799,-2.4245232654,
 2.5141947876\H,0,-1.0780349411,-4.0706676421,-0.4879786536\H,0,-2.6317
 709645,-3.5173795714,0.2592242757\H,0,-1.9636011933,-2.6683704275,-1.1
 814752607\H,0,-1.0926672988,-0.5016111682,1.7459095687\H,0,-2.51747883
 25,-1.5646253979,1.8429868103\H,0,-3.183761379,-0.9445960882,-0.495888
 1945\H,0,-3.1676152573,0.3951949965,0.6538900704\H,0,0.2133651863,1.26
 51392944,-2.2568316736\H,0,1.7240645906,3.1758310459,-1.7040182758\H,0
 ,1.459855915,4.3914774803,0.4684675449\H,0,-0.3298056113,3.6827159128,
 2.0602583585\H,0,-1.8306550879,1.8081199788,1.5146599075\\Version=ES64
 L-G16RevC.01\State=1-A\HF=-1020.4303792\RMSD=4.258e-09\Dipole=-4.21193
 64,5.3060756,2.5412487\Quadrupole=16.2375877,-39.0864543,22.8488667,31
 .0574693,-1.8842385,-7.9036379\PG=C01 [X(C11H18Cl1N1O1)]\\@
 The archive entry for this job was punched.


 NATURE GIVES TO EVERY TIME AND SEASON SOME BEAUTY OF ITS OWN.

                                                    --DICKENS
 Job cpu time:       0 days  0 hours 13 minutes 56.6 seconds.
 Elapsed time:       0 days  0 hours  0 minutes 35.7 seconds.
 File lengths (MBytes):  RWF=    113 Int=      0 D2E=      0 Chk=     15 Scr=      1
 Normal termination of Gaussian 16 at Sat Aug 21 09:46:51 2021.
