 Entering Gaussian System, Link 0=g16
 Input=USFRYJRPHFMVBZ-UHFFFAOYSA-M.gjf
 Output=USFRYJRPHFMVBZ-UHFFFAOYSA-M.log
 Initial command:
 /sw/arch/RedHatEnterpriseServer7/EB_production/2020/software/Gaussian/g16.c01/l1.exe "/scratch-local/elenaa.10684834/Gau-12870.inp" -scrdir="/scratch-local/elenaa.10684834/"
 Entering Link 1 = /sw/arch/RedHatEnterpriseServer7/EB_production/2020/software/Gaussian/g16.c01/l1.exe PID=     12871.
  
 Copyright (c) 1988-2019, Gaussian, Inc.  All Rights Reserved.
  
 This is part of the Gaussian(R) 16 program.  It is based on
 the Gaussian(R) 09 system (copyright 2009, Gaussian, Inc.),
 the Gaussian(R) 03 system (copyright 2003, Gaussian, Inc.),
 the Gaussian(R) 98 system (copyright 1998, Gaussian, Inc.),
 the Gaussian(R) 94 system (copyright 1995, Gaussian, Inc.),
 the Gaussian 92(TM) system (copyright 1992, Gaussian, Inc.),
 the Gaussian 90(TM) system (copyright 1990, Gaussian, Inc.),
 the Gaussian 88(TM) system (copyright 1988, Gaussian, Inc.),
 the Gaussian 86(TM) system (copyright 1986, Carnegie Mellon
 University), and the Gaussian 82(TM) system (copyright 1983,
 Carnegie Mellon University). Gaussian is a federally registered
 trademark of Gaussian, Inc.
  
 This software contains proprietary and confidential information,
 including trade secrets, belonging to Gaussian, Inc.
  
 This software is provided under written license and may be
 used, copied, transmitted, or stored only in accord with that
 written license.
  
 The following legend is applicable only to US Government
 contracts under FAR:
  
                    RESTRICTED RIGHTS LEGEND
  
 Use, reproduction and disclosure by the US Government is
 subject to restrictions as set forth in subparagraphs (a)
 and (c) of the Commercial Computer Software - Restricted
 Rights clause in FAR 52.227-19.
  
 Gaussian, Inc.
 340 Quinnipiac St., Bldg. 40, Wallingford CT 06492
  
  
 ---------------------------------------------------------------
 Warning -- This program may not be used in any manner that
 competes with the business of Gaussian, Inc. or will provide
 assistance to any competitor of Gaussian, Inc.  The licensee
 of this program is prohibited from giving any competitor of
 Gaussian, Inc. access to this program.  By using this program,
 the user acknowledges that Gaussian, Inc. is engaged in the
 business of creating and licensing software in the field of
 computational chemistry and represents and warrants to the
 licensee that it is not a competitor of Gaussian, Inc. and that
 it will not use this program in any manner prohibited above.
 ---------------------------------------------------------------
  

 Cite this work as:
 Gaussian 16, Revision C.01,
 M. J. Frisch, G. W. Trucks, H. B. Schlegel, G. E. Scuseria, 
 M. A. Robb, J. R. Cheeseman, G. Scalmani, V. Barone, 
 G. A. Petersson, H. Nakatsuji, X. Li, M. Caricato, A. V. Marenich, 
 J. Bloino, B. G. Janesko, R. Gomperts, B. Mennucci, H. P. Hratchian, 
 J. V. Ortiz, A. F. Izmaylov, J. L. Sonnenberg, D. Williams-Young, 
 F. Ding, F. Lipparini, F. Egidi, J. Goings, B. Peng, A. Petrone, 
 T. Henderson, D. Ranasinghe, V. G. Zakrzewski, J. Gao, N. Rega, 
 G. Zheng, W. Liang, M. Hada, M. Ehara, K. Toyota, R. Fukuda, 
 J. Hasegawa, M. Ishida, T. Nakajima, Y. Honda, O. Kitao, H. Nakai, 
 T. Vreven, K. Throssell, J. A. Montgomery, Jr., J. E. Peralta, 
 F. Ogliaro, M. J. Bearpark, J. J. Heyd, E. N. Brothers, K. N. Kudin, 
 V. N. Staroverov, T. A. Keith, R. Kobayashi, J. Normand, 
 K. Raghavachari, A. P. Rendell, J. C. Burant, S. S. Iyengar, 
 J. Tomasi, M. Cossi, J. M. Millam, M. Klene, C. Adamo, R. Cammi, 
 J. W. Ochterski, R. L. Martin, K. Morokuma, O. Farkas, 
 J. B. Foresman, and D. J. Fox, Gaussian, Inc., Wallingford CT, 2019.
 
 ******************************************
 Gaussian 16:  ES64L-G16RevC.01  3-Jul-2019
                21-Aug-2021 
 ******************************************
 %chk=USFRYJRPHFMVBZ-UHFFFAOYSA-M.chk
 %NProcShared=24
 Will use up to   24 processors via shared memory.
 -------------------------------------------------------------
 #P BP86/TZVP EmpiricalDispersion=GD3 SCRF=(Solvent=Water) Opt
 -------------------------------------------------------------
 1/18=20,19=15,26=3,38=1/1,3;
 2/9=110,12=2,17=6,18=5,40=1/2;
 3/5=19,7=101,11=2,25=1,30=1,70=2201,71=1,72=1,74=404,124=31/1,2,3;
 4//1;
 5/5=2,38=5,53=1/2;
 6/7=2,8=2,9=2,10=2,28=1/1;
 7//1,2,3,16;
 1/18=20,19=15,26=3/3(2);
 2/9=110/2;
 99//99;
 2/9=110/2;
 3/5=19,7=101,11=2,25=1,30=1,70=2205,71=1,72=1,74=404,124=31/1,2,3;
 4/5=5,16=3,69=1/1;
 5/5=2,38=5,53=1/2;
 7//1,2,3,16;
 1/18=20,19=15,26=3/3(-5);
 2/9=110/2;
 6/7=2,8=2,9=2,10=2,19=2,28=1/1;
 99/9=1/99;
 Leave Link    1 at Sat Aug 21 12:58:04 2021, MaxMem=           0 cpu:               1.9 elap:               0.1
 (Enter /sw/arch/RedHatEnterpriseServer7/EB_production/2020/software/Gaussian/g16.c01/l101.exe)
 -------------------------------------
 Particle #USFRYJRPHFMVBZ-UHFFFAOYSA-M
 -------------------------------------
 Symbolic Z-matrix:
 Charge =  0 Multiplicity = 1
 Cl                   -3.76976  -1.22042  -0.46146 
 C                    -1.50145   4.23106  -2.15242 
 C                    -0.61943   4.32542  -1.0678 
 C                    -0.50811   3.26811  -0.15886 
 C                    -1.27584   2.10284  -0.32917 
 C                    -1.11451   0.91497   0.58596 
 P                     0.36686  -0.1018    0.13415 
 C                     0.31049  -0.49683  -1.642 
 C                     0.09864  -1.81784  -2.06814 
 C                     0.02223  -2.09648  -3.43589 
 C                     0.15856  -1.06545  -4.37251 
 C                     0.3765    0.25043  -3.94561 
 C                     0.45333   0.54229  -2.58233 
 C                     1.88803   0.83449   0.49649 
 C                     1.99373   1.49837   1.73252 
 C                     3.1663    2.18696   2.04866 
 C                     4.23357   2.20965   1.14135 
 C                     4.13241   1.53632  -0.08085 
 C                     2.96193   0.84428  -0.40789 
 C                     0.37053  -1.62886   1.12488 
 C                    -0.82011  -2.36724   1.25663 
 C                    -0.80461  -3.55347   1.99607 
 C                     0.37898  -3.99737   2.59891 
 C                     1.5602   -3.25797   2.46142 
 C                     1.56285  -2.0708    1.72378 
 C                    -2.1659    2.01727  -1.41398 
 C                    -2.27982   3.07882  -2.31744 
 H                    -1.58408   5.05583  -2.86335 
 H                    -0.01534   5.22444  -0.92914 
 H                     0.18596   3.34517   0.68069 
 H                    -0.9869    1.19265   1.64245 
 H                    -1.9741    0.2241    0.49406 
 H                    -0.00597  -2.62453  -1.34132 
 H                    -0.14275  -3.12285  -3.76781 
 H                     0.09895  -1.28809  -5.43959 
 H                     0.48667   1.05505  -4.67443 
 H                     0.62564   1.56906  -2.25628 
 H                     1.17231   1.47986   2.45084 
 H                     3.24563   2.70624   3.00503 
 H                     5.14786   2.75112   1.39101 
 H                     4.96576   1.54731  -0.78525 
 H                     2.88954   0.31705  -1.35994 
 H                    -1.74805  -2.03607   0.77292 
 H                    -1.72469  -4.13166   2.10066 
 H                     0.38173  -4.92339   3.17727 
 H                     2.48306  -3.60325   2.93061 
 H                     2.48362  -1.49434   1.61954 
 H                    -2.75831   1.1056   -1.53841 
 H                    -2.97256   3.00207  -3.15823 
 
 Add virtual bond connecting atoms H32        and Cl1        Dist= 4.71D+00.
 Add virtual bond connecting atoms H43        and Cl1        Dist= 4.73D+00.
 ITRead=  0  0  0  0  0  0  0  0  0  0  0  0  0  0  0  0  0  0  0  0
 ITRead=  0  0  0  0  0  0  0  0  0  0  0  0  0  0  0  0  0  0  0  0
 ITRead=  0  0  0  0  0  0  0  0  0
 MicOpt= -1 -1 -1 -1 -1 -1 -1 -1 -1 -1 -1 -1 -1 -1 -1 -1 -1 -1 -1 -1
 MicOpt= -1 -1 -1 -1 -1 -1 -1 -1 -1 -1 -1 -1 -1 -1 -1 -1 -1 -1 -1 -1
 MicOpt= -1 -1 -1 -1 -1 -1 -1 -1 -1
 NAtoms=     49 NQM=       49 NQMF=       0 NMMI=      0 NMMIF=      0
                NMic=       0 NMicF=      0.
                    Isotopes and Nuclear Properties:
 (Nuclear quadrupole moments (NQMom) in fm**2, nuclear magnetic moments (NMagM)
  in nuclear magnetons)

  Atom         1           2           3           4           5           6           7           8           9          10
 IAtWgt=          35          12          12          12          12          12          31          12          12          12
 AtmWgt=  34.9688527  12.0000000  12.0000000  12.0000000  12.0000000  12.0000000  30.9737634  12.0000000  12.0000000  12.0000000
 NucSpn=           3           0           0           0           0           0           1           0           0           0
 AtZEff=  -0.0000000  -0.0000000  -0.0000000  -0.0000000  -0.0000000  -0.0000000  -0.0000000  -0.0000000  -0.0000000  -0.0000000
 NQMom=   -8.1650000   0.0000000   0.0000000   0.0000000   0.0000000   0.0000000   0.0000000   0.0000000   0.0000000   0.0000000
 NMagM=    0.8218740   0.0000000   0.0000000   0.0000000   0.0000000   0.0000000   1.1316000   0.0000000   0.0000000   0.0000000
 AtZNuc=  17.0000000   6.0000000   6.0000000   6.0000000   6.0000000   6.0000000  15.0000000   6.0000000   6.0000000   6.0000000

  Atom        11          12          13          14          15          16          17          18          19          20
 IAtWgt=          12          12          12          12          12          12          12          12          12          12
 AtmWgt=  12.0000000  12.0000000  12.0000000  12.0000000  12.0000000  12.0000000  12.0000000  12.0000000  12.0000000  12.0000000
 NucSpn=           0           0           0           0           0           0           0           0           0           0
 AtZEff=  -0.0000000  -0.0000000  -0.0000000  -0.0000000  -0.0000000  -0.0000000  -0.0000000  -0.0000000  -0.0000000  -0.0000000
 NQMom=    0.0000000   0.0000000   0.0000000   0.0000000   0.0000000   0.0000000   0.0000000   0.0000000   0.0000000   0.0000000
 NMagM=    0.0000000   0.0000000   0.0000000   0.0000000   0.0000000   0.0000000   0.0000000   0.0000000   0.0000000   0.0000000
 AtZNuc=   6.0000000   6.0000000   6.0000000   6.0000000   6.0000000   6.0000000   6.0000000   6.0000000   6.0000000   6.0000000

  Atom        21          22          23          24          25          26          27          28          29          30
 IAtWgt=          12          12          12          12          12          12          12           1           1           1
 AtmWgt=  12.0000000  12.0000000  12.0000000  12.0000000  12.0000000  12.0000000  12.0000000   1.0078250   1.0078250   1.0078250
 NucSpn=           0           0           0           0           0           0           0           1           1           1
 AtZEff=  -0.0000000  -0.0000000  -0.0000000  -0.0000000  -0.0000000  -0.0000000  -0.0000000  -0.0000000  -0.0000000  -0.0000000
 NQMom=    0.0000000   0.0000000   0.0000000   0.0000000   0.0000000   0.0000000   0.0000000   0.0000000   0.0000000   0.0000000
 NMagM=    0.0000000   0.0000000   0.0000000   0.0000000   0.0000000   0.0000000   0.0000000   2.7928460   2.7928460   2.7928460
 AtZNuc=   6.0000000   6.0000000   6.0000000   6.0000000   6.0000000   6.0000000   6.0000000   1.0000000   1.0000000   1.0000000

  Atom        31          32          33          34          35          36          37          38          39          40
 IAtWgt=           1           1           1           1           1           1           1           1           1           1
 AtmWgt=   1.0078250   1.0078250   1.0078250   1.0078250   1.0078250   1.0078250   1.0078250   1.0078250   1.0078250   1.0078250
 NucSpn=           1           1           1           1           1           1           1           1           1           1
 AtZEff=  -0.0000000  -0.0000000  -0.0000000  -0.0000000  -0.0000000  -0.0000000  -0.0000000  -0.0000000  -0.0000000  -0.0000000
 NQMom=    0.0000000   0.0000000   0.0000000   0.0000000   0.0000000   0.0000000   0.0000000   0.0000000   0.0000000   0.0000000
 NMagM=    2.7928460   2.7928460   2.7928460   2.7928460   2.7928460   2.7928460   2.7928460   2.7928460   2.7928460   2.7928460
 AtZNuc=   1.0000000   1.0000000   1.0000000   1.0000000   1.0000000   1.0000000   1.0000000   1.0000000   1.0000000   1.0000000

  Atom        41          42          43          44          45          46          47          48          49
 IAtWgt=           1           1           1           1           1           1           1           1           1
 AtmWgt=   1.0078250   1.0078250   1.0078250   1.0078250   1.0078250   1.0078250   1.0078250   1.0078250   1.0078250
 NucSpn=           1           1           1           1           1           1           1           1           1
 AtZEff=  -0.0000000  -0.0000000  -0.0000000  -0.0000000  -0.0000000  -0.0000000  -0.0000000  -0.0000000  -0.0000000
 NQMom=    0.0000000   0.0000000   0.0000000   0.0000000   0.0000000   0.0000000   0.0000000   0.0000000   0.0000000
 NMagM=    2.7928460   2.7928460   2.7928460   2.7928460   2.7928460   2.7928460   2.7928460   2.7928460   2.7928460
 AtZNuc=   1.0000000   1.0000000   1.0000000   1.0000000   1.0000000   1.0000000   1.0000000   1.0000000   1.0000000
 Leave Link  101 at Sat Aug 21 12:58:05 2021, MaxMem=   104857600 cpu:               2.1 elap:               0.1
 (Enter /sw/arch/RedHatEnterpriseServer7/EB_production/2020/software/Gaussian/g16.c01/l103.exe)

 GradGradGradGradGradGradGradGradGradGradGradGradGradGradGradGradGradGrad
 Berny optimization.
 Initialization pass.
                           ----------------------------
                           !    Initial Parameters    !
                           ! (Angstroms and Degrees)  !
 --------------------------                            --------------------------
 ! Name  Definition              Value          Derivative Info.                !
 --------------------------------------------------------------------------------
 ! R1    R(1,32)                 2.4948         estimate D2E/DX2                !
 ! R2    R(1,43)                 2.5053         estimate D2E/DX2                !
 ! R3    R(2,3)                  1.4012         estimate D2E/DX2                !
 ! R4    R(2,27)                 1.4003         estimate D2E/DX2                !
 ! R5    R(2,28)                 1.092          estimate D2E/DX2                !
 ! R6    R(3,4)                  1.3987         estimate D2E/DX2                !
 ! R7    R(3,29)                 1.092          estimate D2E/DX2                !
 ! R8    R(4,5)                  1.4058         estimate D2E/DX2                !
 ! R9    R(4,30)                 1.092          estimate D2E/DX2                !
 ! R10   R(5,6)                  1.5082         estimate D2E/DX2                !
 ! R11   R(5,26)                 1.4058         estimate D2E/DX2                !
 ! R12   R(6,7)                  1.8527         estimate D2E/DX2                !
 ! R13   R(6,31)                 1.0998         estimate D2E/DX2                !
 ! R14   R(6,32)                 1.1066         estimate D2E/DX2                !
 ! R15   R(7,8)                  1.8204         estimate D2E/DX2                !
 ! R16   R(7,14)                 1.8226         estimate D2E/DX2                !
 ! R17   R(7,20)                 1.8203         estimate D2E/DX2                !
 ! R18   R(8,9)                  1.4041         estimate D2E/DX2                !
 ! R19   R(8,13)                 1.4087         estimate D2E/DX2                !
 ! R20   R(9,10)                 1.3979         estimate D2E/DX2                !
 ! R21   R(9,33)                 1.0909         estimate D2E/DX2                !
 ! R22   R(10,11)                1.3996         estimate D2E/DX2                !
 ! R23   R(10,34)                1.0912         estimate D2E/DX2                !
 ! R24   R(11,12)                1.4005         estimate D2E/DX2                !
 ! R25   R(11,35)                1.0917         estimate D2E/DX2                !
 ! R26   R(12,13)                1.3963         estimate D2E/DX2                !
 ! R27   R(12,36)                1.0912         estimate D2E/DX2                !
 ! R28   R(13,37)                1.091          estimate D2E/DX2                !
 ! R29   R(14,15)                1.407          estimate D2E/DX2                !
 ! R30   R(14,19)                1.404          estimate D2E/DX2                !
 ! R31   R(15,16)                1.3961         estimate D2E/DX2                !
 ! R32   R(15,38)                1.0913         estimate D2E/DX2                !
 ! R33   R(16,17)                1.401          estimate D2E/DX2                !
 ! R34   R(16,39)                1.0911         estimate D2E/DX2                !
 ! R35   R(17,18)                1.3991         estimate D2E/DX2                !
 ! R36   R(17,40)                1.0915         estimate D2E/DX2                !
 ! R37   R(18,19)                1.3985         estimate D2E/DX2                !
 ! R38   R(18,41)                1.0912         estimate D2E/DX2                !
 ! R39   R(19,42)                1.0907         estimate D2E/DX2                !
 ! R40   R(20,21)                1.4072         estimate D2E/DX2                !
 ! R41   R(20,25)                1.4056         estimate D2E/DX2                !
 ! R42   R(21,22)                1.3979         estimate D2E/DX2                !
 ! R43   R(21,43)                1.0976         estimate D2E/DX2                !
 ! R44   R(22,23)                1.4005         estimate D2E/DX2                !
 ! R45   R(22,44)                1.0917         estimate D2E/DX2                !
 ! R46   R(23,24)                1.4003         estimate D2E/DX2                !
 ! R47   R(23,45)                1.0918         estimate D2E/DX2                !
 ! R48   R(24,25)                1.3977         estimate D2E/DX2                !
 ! R49   R(24,46)                1.0914         estimate D2E/DX2                !
 ! R50   R(25,47)                1.0913         estimate D2E/DX2                !
 ! R51   R(26,27)                1.3986         estimate D2E/DX2                !
 ! R52   R(26,48)                1.0943         estimate D2E/DX2                !
 ! R53   R(27,49)                1.0921         estimate D2E/DX2                !
 ! A1    A(32,1,43)             54.4763         estimate D2E/DX2                !
 ! A2    A(3,2,27)             119.7728         estimate D2E/DX2                !
 ! A3    A(3,2,28)             120.0476         estimate D2E/DX2                !
 ! A4    A(27,2,28)            120.1789         estimate D2E/DX2                !
 ! A5    A(2,3,4)              120.1465         estimate D2E/DX2                !
 ! A6    A(2,3,29)             120.1315         estimate D2E/DX2                !
 ! A7    A(4,3,29)             119.7219         estimate D2E/DX2                !
 ! A8    A(3,4,5)              120.2907         estimate D2E/DX2                !
 ! A9    A(3,4,30)             119.791          estimate D2E/DX2                !
 ! A10   A(5,4,30)             119.9155         estimate D2E/DX2                !
 ! A11   A(4,5,6)              121.3957         estimate D2E/DX2                !
 ! A12   A(4,5,26)             119.3202         estimate D2E/DX2                !
 ! A13   A(6,5,26)             119.2104         estimate D2E/DX2                !
 ! A14   A(5,6,7)              111.7043         estimate D2E/DX2                !
 ! A15   A(5,6,31)             113.356          estimate D2E/DX2                !
 ! A16   A(5,6,32)             110.9915         estimate D2E/DX2                !
 ! A17   A(7,6,31)             106.2632         estimate D2E/DX2                !
 ! A18   A(7,6,32)             104.9639         estimate D2E/DX2                !
 ! A19   A(31,6,32)            109.1192         estimate D2E/DX2                !
 ! A20   A(6,7,8)              109.4066         estimate D2E/DX2                !
 ! A21   A(6,7,14)             109.69           estimate D2E/DX2                !
 ! A22   A(6,7,20)             109.2254         estimate D2E/DX2                !
 ! A23   A(8,7,14)             109.3469         estimate D2E/DX2                !
 ! A24   A(8,7,20)             110.4292         estimate D2E/DX2                !
 ! A25   A(14,7,20)            108.7278         estimate D2E/DX2                !
 ! A26   A(7,8,9)              120.3275         estimate D2E/DX2                !
 ! A27   A(7,8,13)             119.2142         estimate D2E/DX2                !
 ! A28   A(9,8,13)             120.4446         estimate D2E/DX2                !
 ! A29   A(8,9,10)             119.5193         estimate D2E/DX2                !
 ! A30   A(8,9,33)             120.5304         estimate D2E/DX2                !
 ! A31   A(10,9,33)            119.9504         estimate D2E/DX2                !
 ! A32   A(9,10,11)            120.1718         estimate D2E/DX2                !
 ! A33   A(9,10,34)            119.56           estimate D2E/DX2                !
 ! A34   A(11,10,34)           120.2682         estimate D2E/DX2                !
 ! A35   A(10,11,12)           120.2213         estimate D2E/DX2                !
 ! A36   A(10,11,35)           119.9049         estimate D2E/DX2                !
 ! A37   A(12,11,35)           119.8733         estimate D2E/DX2                !
 ! A38   A(11,12,13)           120.1712         estimate D2E/DX2                !
 ! A39   A(11,12,36)           120.3282         estimate D2E/DX2                !
 ! A40   A(13,12,36)           119.5006         estimate D2E/DX2                !
 ! A41   A(8,13,12)            119.4704         estimate D2E/DX2                !
 ! A42   A(8,13,37)            120.7144         estimate D2E/DX2                !
 ! A43   A(12,13,37)           119.815          estimate D2E/DX2                !
 ! A44   A(7,14,15)            118.6677         estimate D2E/DX2                !
 ! A45   A(7,14,19)            120.9241         estimate D2E/DX2                !
 ! A46   A(15,14,19)           120.3389         estimate D2E/DX2                !
 ! A47   A(14,15,16)           119.6533         estimate D2E/DX2                !
 ! A48   A(14,15,38)           120.9081         estimate D2E/DX2                !
 ! A49   A(16,15,38)           119.4382         estimate D2E/DX2                !
 ! A50   A(15,16,17)           120.0774         estimate D2E/DX2                !
 ! A51   A(15,16,39)           119.6221         estimate D2E/DX2                !
 ! A52   A(17,16,39)           120.3006         estimate D2E/DX2                !
 ! A53   A(16,17,18)           120.1904         estimate D2E/DX2                !
 ! A54   A(16,17,40)           119.8672         estimate D2E/DX2                !
 ! A55   A(18,17,40)           119.942          estimate D2E/DX2                !
 ! A56   A(17,18,19)           120.1953         estimate D2E/DX2                !
 ! A57   A(17,18,41)           120.255          estimate D2E/DX2                !
 ! A58   A(19,18,41)           119.5498         estimate D2E/DX2                !
 ! A59   A(14,19,18)           119.536          estimate D2E/DX2                !
 ! A60   A(14,19,42)           120.5388         estimate D2E/DX2                !
 ! A61   A(18,19,42)           119.9252         estimate D2E/DX2                !
 ! A62   A(7,20,21)            119.3041         estimate D2E/DX2                !
 ! A63   A(7,20,25)            119.8274         estimate D2E/DX2                !
 ! A64   A(21,20,25)           120.8549         estimate D2E/DX2                !
 ! A65   A(20,21,22)           119.0389         estimate D2E/DX2                !
 ! A66   A(20,21,43)           121.047          estimate D2E/DX2                !
 ! A67   A(22,21,43)           119.9026         estimate D2E/DX2                !
 ! A68   A(21,22,23)           120.4001         estimate D2E/DX2                !
 ! A69   A(21,22,44)           119.3902         estimate D2E/DX2                !
 ! A70   A(23,22,44)           120.2097         estimate D2E/DX2                !
 ! A71   A(22,23,24)           120.2161         estimate D2E/DX2                !
 ! A72   A(22,23,45)           119.9334         estimate D2E/DX2                !
 ! A73   A(24,23,45)           119.8505         estimate D2E/DX2                !
 ! A74   A(23,24,25)           120.127          estimate D2E/DX2                !
 ! A75   A(23,24,46)           120.2673         estimate D2E/DX2                !
 ! A76   A(25,24,46)           119.6055         estimate D2E/DX2                !
 ! A77   A(20,25,24)           119.3625         estimate D2E/DX2                !
 ! A78   A(20,25,47)           120.5926         estimate D2E/DX2                !
 ! A79   A(24,25,47)           120.0446         estimate D2E/DX2                !
 ! A80   A(5,26,27)            120.2544         estimate D2E/DX2                !
 ! A81   A(5,26,48)            118.7629         estimate D2E/DX2                !
 ! A82   A(27,26,48)           120.9815         estimate D2E/DX2                !
 ! A83   A(2,27,26)            120.2088         estimate D2E/DX2                !
 ! A84   A(2,27,49)            120.0769         estimate D2E/DX2                !
 ! A85   A(26,27,49)           119.7121         estimate D2E/DX2                !
 ! A86   A(1,32,6)             162.2441         estimate D2E/DX2                !
 ! A87   L(1,43,21,3,-1)       177.411          estimate D2E/DX2                !
 ! A88   L(1,43,21,3,-2)       183.1141         estimate D2E/DX2                !
 ! D1    D(32,1,21,20)         -33.1004         estimate D2E/DX2                !
 ! D2    D(32,1,21,22)         150.0041         estimate D2E/DX2                !
 ! D3    D(43,1,32,6)          110.978          estimate D2E/DX2                !
 ! D4    D(27,2,3,4)             0.5322         estimate D2E/DX2                !
 ! D5    D(27,2,3,29)         -179.5257         estimate D2E/DX2                !
 ! D6    D(28,2,3,4)          -179.7511         estimate D2E/DX2                !
 ! D7    D(28,2,3,29)            0.191          estimate D2E/DX2                !
 ! D8    D(3,2,27,26)           -0.8482         estimate D2E/DX2                !
 ! D9    D(3,2,27,49)          179.6938         estimate D2E/DX2                !
 ! D10   D(28,2,27,26)         179.4355         estimate D2E/DX2                !
 ! D11   D(28,2,27,49)          -0.0225         estimate D2E/DX2                !
 ! D12   D(2,3,4,5)              0.2188         estimate D2E/DX2                !
 ! D13   D(2,3,4,30)           179.5984         estimate D2E/DX2                !
 ! D14   D(29,3,4,5)          -179.7235         estimate D2E/DX2                !
 ! D15   D(29,3,4,30)           -0.3439         estimate D2E/DX2                !
 ! D16   D(3,4,5,6)            176.2022         estimate D2E/DX2                !
 ! D17   D(3,4,5,26)            -0.6504         estimate D2E/DX2                !
 ! D18   D(30,4,5,6)            -3.1767         estimate D2E/DX2                !
 ! D19   D(30,4,5,26)          179.9707         estimate D2E/DX2                !
 ! D20   D(4,5,6,7)            -79.4755         estimate D2E/DX2                !
 ! D21   D(4,5,6,31)            40.5382         estimate D2E/DX2                !
 ! D22   D(4,5,6,32)           163.7556         estimate D2E/DX2                !
 ! D23   D(26,5,6,7)            97.3805         estimate D2E/DX2                !
 ! D24   D(26,5,6,31)         -142.6059         estimate D2E/DX2                !
 ! D25   D(26,5,6,32)          -19.3884         estimate D2E/DX2                !
 ! D26   D(4,5,26,27)            0.3348         estimate D2E/DX2                !
 ! D27   D(4,5,26,48)          179.9401         estimate D2E/DX2                !
 ! D28   D(6,5,26,27)         -176.5872         estimate D2E/DX2                !
 ! D29   D(6,5,26,48)            3.018          estimate D2E/DX2                !
 ! D30   D(5,6,7,8)            -51.3505         estimate D2E/DX2                !
 ! D31   D(5,6,7,14)            68.5915         estimate D2E/DX2                !
 ! D32   D(5,6,7,20)          -172.3338         estimate D2E/DX2                !
 ! D33   D(31,6,7,8)          -175.4476         estimate D2E/DX2                !
 ! D34   D(31,6,7,14)          -55.5056         estimate D2E/DX2                !
 ! D35   D(31,6,7,20)           63.5691         estimate D2E/DX2                !
 ! D36   D(32,6,7,8)            69.0129         estimate D2E/DX2                !
 ! D37   D(32,6,7,14)         -171.0451         estimate D2E/DX2                !
 ! D38   D(32,6,7,20)          -51.9704         estimate D2E/DX2                !
 ! D39   D(5,6,32,1)            46.9082         estimate D2E/DX2                !
 ! D40   D(7,6,32,1)           -73.9263         estimate D2E/DX2                !
 ! D41   D(31,6,32,1)          172.5295         estimate D2E/DX2                !
 ! D42   D(6,7,8,9)           -111.7693         estimate D2E/DX2                !
 ! D43   D(6,7,8,13)            66.8879         estimate D2E/DX2                !
 ! D44   D(14,7,8,9)           128.0784         estimate D2E/DX2                !
 ! D45   D(14,7,8,13)          -53.2644         estimate D2E/DX2                !
 ! D46   D(20,7,8,9)             8.4805         estimate D2E/DX2                !
 ! D47   D(20,7,8,13)         -172.8623         estimate D2E/DX2                !
 ! D48   D(6,7,14,15)           45.9146         estimate D2E/DX2                !
 ! D49   D(6,7,14,19)         -137.1027         estimate D2E/DX2                !
 ! D50   D(8,7,14,15)          165.8931         estimate D2E/DX2                !
 ! D51   D(8,7,14,19)          -17.1242         estimate D2E/DX2                !
 ! D52   D(20,7,14,15)         -73.4659         estimate D2E/DX2                !
 ! D53   D(20,7,14,19)         103.5168         estimate D2E/DX2                !
 ! D54   D(6,7,20,21)           45.9437         estimate D2E/DX2                !
 ! D55   D(6,7,20,25)         -135.3888         estimate D2E/DX2                !
 ! D56   D(8,7,20,21)          -74.4148         estimate D2E/DX2                !
 ! D57   D(8,7,20,25)          104.2527         estimate D2E/DX2                !
 ! D58   D(14,7,20,21)         165.614          estimate D2E/DX2                !
 ! D59   D(14,7,20,25)         -15.7185         estimate D2E/DX2                !
 ! D60   D(7,8,9,10)           178.273          estimate D2E/DX2                !
 ! D61   D(7,8,9,33)            -1.7414         estimate D2E/DX2                !
 ! D62   D(13,8,9,10)           -0.3676         estimate D2E/DX2                !
 ! D63   D(13,8,9,33)          179.6181         estimate D2E/DX2                !
 ! D64   D(7,8,13,12)         -178.3594         estimate D2E/DX2                !
 ! D65   D(7,8,13,37)            1.812          estimate D2E/DX2                !
 ! D66   D(9,8,13,12)            0.2961         estimate D2E/DX2                !
 ! D67   D(9,8,13,37)         -179.5324         estimate D2E/DX2                !
 ! D68   D(8,9,10,11)            0.1173         estimate D2E/DX2                !
 ! D69   D(8,9,10,34)         -179.978          estimate D2E/DX2                !
 ! D70   D(33,9,10,11)        -179.8684         estimate D2E/DX2                !
 ! D71   D(33,9,10,34)           0.0362         estimate D2E/DX2                !
 ! D72   D(9,10,11,12)           0.203          estimate D2E/DX2                !
 ! D73   D(9,10,11,35)         179.9507         estimate D2E/DX2                !
 ! D74   D(34,10,11,12)       -179.7009         estimate D2E/DX2                !
 ! D75   D(34,10,11,35)          0.0468         estimate D2E/DX2                !
 ! D76   D(10,11,12,13)         -0.2752         estimate D2E/DX2                !
 ! D77   D(10,11,12,36)        179.7762         estimate D2E/DX2                !
 ! D78   D(35,11,12,13)        179.977          estimate D2E/DX2                !
 ! D79   D(35,11,12,36)          0.0285         estimate D2E/DX2                !
 ! D80   D(11,12,13,8)           0.026          estimate D2E/DX2                !
 ! D81   D(11,12,13,37)        179.8561         estimate D2E/DX2                !
 ! D82   D(36,12,13,8)         179.975          estimate D2E/DX2                !
 ! D83   D(36,12,13,37)         -0.1949         estimate D2E/DX2                !
 ! D84   D(7,14,15,16)         178.0143         estimate D2E/DX2                !
 ! D85   D(7,14,15,38)          -1.7569         estimate D2E/DX2                !
 ! D86   D(19,14,15,16)          1.0134         estimate D2E/DX2                !
 ! D87   D(19,14,15,38)       -178.7578         estimate D2E/DX2                !
 ! D88   D(7,14,19,18)        -177.8992         estimate D2E/DX2                !
 ! D89   D(7,14,19,42)           2.0614         estimate D2E/DX2                !
 ! D90   D(15,14,19,18)         -0.9668         estimate D2E/DX2                !
 ! D91   D(15,14,19,42)        178.9938         estimate D2E/DX2                !
 ! D92   D(14,15,16,17)         -0.3322         estimate D2E/DX2                !
 ! D93   D(14,15,16,39)        179.6636         estimate D2E/DX2                !
 ! D94   D(38,15,16,17)        179.4424         estimate D2E/DX2                !
 ! D95   D(38,15,16,39)         -0.5618         estimate D2E/DX2                !
 ! D96   D(15,16,17,18)         -0.3897         estimate D2E/DX2                !
 ! D97   D(15,16,17,40)        179.8518         estimate D2E/DX2                !
 ! D98   D(39,16,17,18)        179.6146         estimate D2E/DX2                !
 ! D99   D(39,16,17,40)         -0.1439         estimate D2E/DX2                !
 ! D100  D(16,17,18,19)          0.4361         estimate D2E/DX2                !
 ! D101  D(16,17,18,41)       -179.5592         estimate D2E/DX2                !
 ! D102  D(40,17,18,19)       -179.8056         estimate D2E/DX2                !
 ! D103  D(40,17,18,41)          0.1991         estimate D2E/DX2                !
 ! D104  D(17,18,19,14)          0.2411         estimate D2E/DX2                !
 ! D105  D(17,18,19,42)       -179.7197         estimate D2E/DX2                !
 ! D106  D(41,18,19,14)       -179.7635         estimate D2E/DX2                !
 ! D107  D(41,18,19,42)          0.2756         estimate D2E/DX2                !
 ! D108  D(7,20,21,22)         178.706          estimate D2E/DX2                !
 ! D109  D(7,20,21,43)          -0.0583         estimate D2E/DX2                !
 ! D110  D(25,20,21,22)          0.0526         estimate D2E/DX2                !
 ! D111  D(25,20,21,43)       -178.7117         estimate D2E/DX2                !
 ! D112  D(7,20,25,24)        -178.8001         estimate D2E/DX2                !
 ! D113  D(7,20,25,47)           1.4049         estimate D2E/DX2                !
 ! D114  D(21,20,25,24)         -0.1536         estimate D2E/DX2                !
 ! D115  D(21,20,25,47)       -179.9487         estimate D2E/DX2                !
 ! D116  D(20,21,22,23)          0.1488         estimate D2E/DX2                !
 ! D117  D(20,21,22,44)       -179.9034         estimate D2E/DX2                !
 ! D118  D(43,21,22,23)        178.9276         estimate D2E/DX2                !
 ! D119  D(43,21,22,44)         -1.1247         estimate D2E/DX2                !
 ! D120  D(21,22,23,24)         -0.2491         estimate D2E/DX2                !
 ! D121  D(21,22,23,45)        179.8135         estimate D2E/DX2                !
 ! D122  D(44,22,23,24)        179.8036         estimate D2E/DX2                !
 ! D123  D(44,22,23,45)         -0.1339         estimate D2E/DX2                !
 ! D124  D(22,23,24,25)          0.1461         estimate D2E/DX2                !
 ! D125  D(22,23,24,46)       -179.9833         estimate D2E/DX2                !
 ! D126  D(45,23,24,25)       -179.9165         estimate D2E/DX2                !
 ! D127  D(45,23,24,46)         -0.0458         estimate D2E/DX2                !
 ! D128  D(23,24,25,20)          0.0537         estimate D2E/DX2                !
 ! D129  D(23,24,25,47)        179.8499         estimate D2E/DX2                !
 ! D130  D(46,24,25,20)       -179.8178         estimate D2E/DX2                !
 ! D131  D(46,24,25,47)         -0.0217         estimate D2E/DX2                !
 ! D132  D(5,26,27,2)            0.4138         estimate D2E/DX2                !
 ! D133  D(5,26,27,49)         179.8738         estimate D2E/DX2                !
 ! D134  D(48,26,27,2)        -179.1826         estimate D2E/DX2                !
 ! D135  D(48,26,27,49)          0.2774         estimate D2E/DX2                !
 --------------------------------------------------------------------------------
 Trust Radius=3.00D-01 FncErr=1.00D-07 GrdErr=1.00D-06 EigMax=2.50D+02 EigMin=1.00D-04
 Number of steps in this run=    286 maximum allowed number of steps=    294.
 GradGradGradGradGradGradGradGradGradGradGradGradGradGradGradGradGradGrad

 Leave Link  103 at Sat Aug 21 12:58:05 2021, MaxMem=   104857600 cpu:               0.4 elap:               0.0
 (Enter /sw/arch/RedHatEnterpriseServer7/EB_production/2020/software/Gaussian/g16.c01/l202.exe)
                          Input orientation:                          
 ---------------------------------------------------------------------
 Center     Atomic      Atomic             Coordinates (Angstroms)
 Number     Number       Type             X           Y           Z
 ---------------------------------------------------------------------
      1         17           0       -3.769764   -1.220420   -0.461463
      2          6           0       -1.501446    4.231060   -2.152420
      3          6           0       -0.619432    4.325424   -1.067801
      4          6           0       -0.508113    3.268114   -0.158861
      5          6           0       -1.275838    2.102837   -0.329166
      6          6           0       -1.114509    0.914968    0.585964
      7         15           0        0.366857   -0.101799    0.134154
      8          6           0        0.310485   -0.496832   -1.641999
      9          6           0        0.098644   -1.817838   -2.068138
     10          6           0        0.022228   -2.096484   -3.435893
     11          6           0        0.158559   -1.065447   -4.372513
     12          6           0        0.376500    0.250433   -3.945613
     13          6           0        0.453332    0.542291   -2.582326
     14          6           0        1.888027    0.834492    0.496490
     15          6           0        1.993726    1.498371    1.732523
     16          6           0        3.166299    2.186962    2.048661
     17          6           0        4.233571    2.209649    1.141345
     18          6           0        4.132414    1.536317   -0.080848
     19          6           0        2.961930    0.844279   -0.407894
     20          6           0        0.370527   -1.628860    1.124881
     21          6           0       -0.820113   -2.367239    1.256634
     22          6           0       -0.804607   -3.553474    1.996069
     23          6           0        0.378975   -3.997374    2.598913
     24          6           0        1.560195   -3.257967    2.461417
     25          6           0        1.562846   -2.070802    1.723775
     26          6           0       -2.165902    2.017272   -1.413977
     27          6           0       -2.279823    3.078824   -2.317443
     28          1           0       -1.584084    5.055829   -2.863345
     29          1           0       -0.015335    5.224443   -0.929141
     30          1           0        0.185961    3.345166    0.680692
     31          1           0       -0.986895    1.192645    1.642448
     32          1           0       -1.974099    0.224101    0.494057
     33          1           0       -0.005972   -2.624530   -1.341324
     34          1           0       -0.142752   -3.122848   -3.767807
     35          1           0        0.098954   -1.288091   -5.439588
     36          1           0        0.486674    1.055050   -4.674430
     37          1           0        0.625638    1.569062   -2.256279
     38          1           0        1.172315    1.479855    2.450840
     39          1           0        3.245633    2.706239    3.005033
     40          1           0        5.147858    2.751120    1.391014
     41          1           0        4.965757    1.547307   -0.785250
     42          1           0        2.889537    0.317048   -1.359941
     43          1           0       -1.748052   -2.036066    0.772917
     44          1           0       -1.724690   -4.131663    2.100655
     45          1           0        0.381726   -4.923389    3.177274
     46          1           0        2.483060   -3.603251    2.930613
     47          1           0        2.483622   -1.494340    1.619535
     48          1           0       -2.758314    1.105601   -1.538414
     49          1           0       -2.972563    3.002071   -3.158232
 ---------------------------------------------------------------------
                    Distance matrix (angstroms):
                    1          2          3          4          5
     1  Cl   0.000000
     2  C    6.141924   0.000000
     3  C    6.406920   1.401161   0.000000
     4  C    5.556696   2.426572   1.398738   0.000000
     5  C    4.157067   2.811492   2.432353   1.405801   0.000000
     6  C    3.564739   4.317978   3.822466   2.541609   1.508152
     7  P    4.326396   5.243343   4.692309   3.493958   2.788105
     8  C    4.308791   5.088869   4.944553   4.128513   3.316358
     9  C    4.231181   6.257520   6.265459   5.466297   4.503878
    10  C    4.898359   6.633754   6.874627   6.308654   5.382474
    11  C    5.545453   5.978078   6.370862   6.081041   5.333308
    12  C    5.611971   4.752643   5.087164   4.922238   4.386378
    13  C    5.043783   4.196784   4.213870   3.771958   3.240689
    14  C    6.095157   5.481052   4.573944   3.477569   3.507200
    15  C    6.739675   5.897169   4.760529   3.601183   3.912287
    16  C    8.125266   6.604185   5.349497   4.420786   5.039218
    17  C    8.853685   6.915592   5.736590   5.029359   5.703280
    18  C    8.377881   6.579774   5.597610   4.953756   5.443510
    19  C    7.041417   5.868167   5.037857   4.240070   4.421407
    20  C    4.452563   6.970197   6.421944   5.138128   4.330165
    21  C    3.601040   7.458111   7.087666   5.818778   4.764874
    22  C    4.502750   8.848419   8.455686   7.160007   6.133729
    23  C    5.855716   9.685983   9.149348   7.821736   6.965962
    24  C    6.411185   9.313789   8.643724   7.330313   6.675976
    25  C    5.825388   8.008011   7.312109   6.028036   5.449033
    26  C    3.736617   2.426449   2.799817   2.426559   1.405827
    27  C    4.914070   1.400268   2.423327   2.798975   2.431827
    28  H    7.066650   1.092011   2.165184   3.415827   3.903491
    29  H    7.473334   2.166044   1.091968   2.159487   3.419541
    30  H    6.147915   3.414480   2.160276   1.092028   2.167960
    31  H    4.241896   4.888533   4.158700   2.789537   2.190707
    32  H    2.494809   4.825242   4.592970   3.441138   2.166775
    33  H    4.112397   7.063528   6.982335   6.031054   4.998502
    34  H    5.263683   7.650849   7.936877   7.348631   6.357352
    35  H    6.305021   6.620255   7.151234   7.000972   6.285289
    36  H    6.406568   4.516658   4.992654   5.126170   4.804750
    37  H    5.506554   3.409033   3.249648   2.927684   2.759401
    38  H    6.340121   5.992339   4.867079   3.582213   3.756327
    39  H    8.755058   7.173504   5.843669   4.941309   5.650193
    40  H    9.936236   7.678502   6.464197   5.887224   6.681554
    41  H    9.169214   7.134171   6.244366   5.772070   6.282844
    42  H    6.893284   5.935339   5.335287   4.657833   4.647783
    43  H    2.505253   6.920642   6.717930   5.526299   4.309071
    44  H    4.384303   9.384755   9.098518   7.832124   6.706302
    45  H    6.647350  10.758992  10.225631   8.889451   8.025615
    46  H    7.502124  10.153322   9.406203   8.106024   7.570661
    47  H    6.596243   7.930234   7.121824   5.898656   5.556137
    48  H    2.755581   3.424210   3.894041   3.412189   2.157428
    49  H    5.073216   2.164776   3.414439   3.891082   3.419227
                    6          7          8          9         10
     6  C    0.000000
     7  P    1.852672   0.000000
     8  C    2.997934   1.820425   0.000000
     9  C    3.998028   2.804785   1.404111   0.000000
    10  C    5.151344   4.103995   2.420751   1.397940   0.000000
    11  C    5.489011   4.613248   2.793226   2.424835   1.399600
    12  C    4.816628   4.094955   2.422685   2.807109   2.427621
    13  C    3.554585   2.793133   1.408686   2.441393   2.806699
    14  C    3.004947   1.822604   2.972238   4.100495   5.247424
    15  C    3.363938   2.786042   4.266326   5.388284   6.597144
    16  C    4.699231   4.091533   5.383251   6.511295   7.636323
    17  C    5.530516   4.616135   5.519298   6.604472   7.565005
    18  C    5.325497   4.112064   4.601959   5.609900   6.430179
    19  C    4.196440   2.814833   3.217414   4.247550   5.143803
    20  C    2.994466   1.820294   2.990103   3.210141   4.597896
    21  C    3.362938   2.793041   3.630254   3.492859   4.775213
    22  C    4.695893   4.093057   4.880782   4.510662   5.684425
    23  C    5.514849   4.609847   5.499438   5.158520   6.337155
    24  C    5.299505   4.098976   5.101339   4.972622   6.204245
    25  C    4.168653   2.798974   3.920998   4.072651   5.384825
    26  C    2.514014   3.647196   3.536270   4.501573   5.079276
    27  C    3.803946   4.809533   4.466681   5.449455   5.773576
    28  H    5.409710   6.276328   5.992756   7.121181   7.352797
    29  H    4.698436   5.444770   5.774713   7.134706   7.738294
    30  H    2.757908   3.494710   4.491252   5.849812   6.825294
    31  H    1.099795   2.404824   3.914731   4.899985   6.134024
    32  H    1.106634   2.390777   3.209642   3.876935   4.981460
    33  H    4.179873   2.946219   2.172015   1.090851   2.160289
    34  H    6.016942   4.961022   3.408877   2.156432   1.091242
    35  H    6.529413   5.704880   3.884909   3.412815   2.161985
    36  H    5.500469   4.947235   3.411014   3.898309   3.417872
    37  H    3.396218   2.927954   2.178206   3.432814   3.897669
    38  H    3.004401   2.918463   4.626162   5.696377   6.983303
    39  H    5.298244   4.941090   6.361577   7.490519   8.656906
    40  H    6.575470   5.707610   6.568755   7.637779   8.548121
    41  H    6.264959   4.971392   5.155975   6.054650   6.688916
    42  H    4.491819   2.961700   2.719093   3.584462   4.284411
    43  H    3.024059   2.936366   3.526845   3.395512   4.566358
    44  H    5.304252   4.947878   5.600124   5.104622   6.151995
    45  H    6.560489   5.701625   6.544072   6.102371   7.201014
    46  H    6.233312   4.955670   5.939588   5.818991   6.989881
    47  H    4.451919   2.937043   4.044150   4.403601   5.654944
    48  H    2.692846   3.744595   3.463531   4.121809   4.645986
    49  H    4.671977   5.623659   5.031867   5.818259   5.919555
                   11         12         13         14         15
    11  C    0.000000
    12  C    1.400458   0.000000
    13  C    2.424146   1.396294   0.000000
    14  C    5.505272   4.728437   3.409229   0.000000
    15  C    6.871133   6.034401   4.680259   1.407013   0.000000
    16  C    7.801035   6.889444   5.613481   2.423301   1.396076
    17  C    7.598329   6.677774   5.562015   2.794364   2.423286
    18  C    6.401491   5.540469   4.558632   2.421394   2.804236
    19  C    5.217676   4.421827   3.333529   1.404021   2.438573
    20  C    5.530254   5.407558   4.296992   2.960707   3.575413
    21  C    5.860013   5.945373   4.982433   4.261798   4.804904
    22  C    6.904839   7.153203   6.270518   5.362207   5.781113
    23  C    7.566080   7.802223   6.889073   5.481273   5.793209
    24  C    7.312614   7.400003   6.411431   4.551553   4.831355
    25  C    6.336205   6.239993   5.157692   3.170600   3.595098
    26  C    4.864073   3.999339   3.225057   4.634997   5.241395
    27  C    5.229149   4.207943   3.738221   5.506925   6.096169
    28  H    6.540979   5.301606   4.960046   6.415897   6.824825
    29  H    7.172849   5.830387   4.987506   4.992683   5.000439
    30  H    6.707394   5.569235   4.309859   3.038823   2.790164
    31  H    6.526163   5.828639   4.510646   3.115553   2.997613
    32  H    5.467602   5.023612   3.931641   3.910064   4.347551
    33  H    3.412611   3.897951   3.432172   4.350819   5.517757
    34  H    2.165492   3.417640   3.897939   6.161885   7.494921
    35  H    1.091683   2.162417   3.411719   6.553103   7.924248
    36  H    2.166869   1.091202   2.154282   5.361982   6.596725
    37  H    3.411341   2.157476   1.090988   3.116241   4.217488
    38  H    7.352850   6.561967   5.169983   2.179041   1.091347
    39  H    8.842162   7.910397   6.610461   3.411645   2.155342
    40  H    8.525112   7.582802   6.534901   3.885889   3.410947
    41  H    6.542484   5.721106   4.959992   3.409309   3.895452
    42  H    4.294779   3.606313   2.734969   2.171890   3.429480
    43  H    5.572496   5.657413   4.769871   4.640860   5.235837
    44  H    7.406093   7.757263   6.965625   6.347264   6.757176
    45  H    8.481321   8.803635   7.940515   6.527537   6.776788
    46  H    8.073376   8.159103   7.190119   5.096330   5.263213
    47  H    6.441623   6.201215   5.091717   2.653191   3.034647
    48  H    4.610175   4.043882   3.423703   5.079648   5.782316
    49  H    5.274761   4.405418   4.256635   6.456061   7.130542
                   16         17         18         19         20
    16  C    0.000000
    17  C    1.401002   0.000000
    18  C    2.427247   1.399058   0.000000
    19  C    2.806996   2.425170   1.398538   0.000000
    20  C    4.819773   5.445873   5.062008   3.896304   0.000000
    21  C    6.104059   6.819158   6.446249   5.233388   1.407191
    22  C    6.980220   7.702427   7.388757   6.269455   2.417446
    23  C    6.805730   7.450473   7.203552   6.257328   2.789749
    24  C    5.691853   6.227709   6.005379   5.198676   2.419841
    25  C    4.561268   5.078805   4.782327   3.872873   1.405564
    26  C    6.360112   6.893470   6.455799   5.355630   5.116009
    27  C    7.036940   7.425832   6.964084   6.009621   6.405953
    28  H    7.411096   7.614683   7.266884   6.665781   8.025679
    29  H    5.311910   5.606166   5.614775   5.321808   7.164891
    30  H    3.477814   4.229036   4.407535   3.891717   4.997230
    31  H    4.289836   5.342159   5.412503   4.463012   3.173541
    32  H    5.717806   6.549546   6.272314   5.055939   3.054288
    33  H    6.686236   6.892507   6.002307   4.659653   2.686127
    34  H    8.542552   8.466847   7.319736   6.055259   5.141386
    35  H    8.806729   8.522788   7.277512   6.169407   6.578915
    36  H    7.325406   7.013956   5.884219   4.937069   6.391312
    37  H    5.036791   4.997137   4.126869   3.065958   4.660904
    38  H    2.153537   3.408616   3.895487   3.432060   3.473491
    39  H    1.091142   2.167015   3.417274   3.898135   5.531210
    40  H    2.162718   1.091534   2.161770   3.413267   6.486751
    41  H    3.417347   2.164847   1.091221   2.156842   5.903624
    42  H    3.897659   3.412447   2.160426   1.090691   4.038107
    43  H    6.603964   7.344498   6.933305   5.645762   2.185880
    44  H    7.990588   8.754050   8.437453   7.281293   3.406771
    45  H    7.719113   8.358346   8.149283   7.264770   3.881541
    46  H    5.896713   6.328947   6.180973   5.581708   3.409059
    47  H    3.768578   4.124381   3.846388   3.131834   2.174385
    48  H    7.009814   7.568784   7.056355   5.836742   4.935591
    49  H    8.090844   8.428681   7.880319   6.887571   7.139106
                   21         22         23         24         25
    21  C    0.000000
    22  C    1.397912   0.000000
    23  C    2.428346   1.400477   0.000000
    24  C    2.812608   2.428201   1.400324   0.000000
    25  C    2.446342   2.806652   2.424685   1.397671   0.000000
    26  C    5.307283   6.671937   7.665224   7.531973   6.360927
    27  C    6.675656   8.047983   9.017336   8.816925   7.590533
    28  H    8.524073   9.916733  10.754085  10.361408   9.040670
    29  H    7.940964   9.286099   9.881526   9.269814   7.921440
    30  H    5.828848   7.092438   7.591424   6.975734   5.684764
    31  H    3.584612   4.762764   5.451305   5.192911   4.142207
    32  H    2.937388   4.230109   5.271454   5.337278   4.391898
    33  H    2.734668   3.555130   4.190269   4.161125   3.487497
    34  H    5.125892   5.817711   6.447644   6.459220   5.845797
    35  H    6.844606   7.825431   8.487410   8.272939   7.353189
    36  H    6.971175   8.209839   8.856642   8.406835   7.201814
    37  H    5.470395   6.809438   7.390463   6.813975   5.474285
    38  H    4.493999   5.426734   5.536366   4.753685   3.645312
    39  H    6.732560   7.523726   7.302129   6.221573   5.224320
    40  H    7.863354   8.691711   8.351254   7.079987   6.017805
    41  H    7.277998   8.188455   7.952020   6.725277   5.564685
    42  H    5.273838   6.315888   6.371003   5.399135   4.119617
    43  H    1.097601   2.165344   3.421291   3.910060   3.444907
    44  H    2.154953   1.091693   2.166033   3.418181   3.898343
    45  H    3.415725   2.163169   1.091793   2.162145   3.412471
    46  H    3.903957   3.418275   2.166225   1.091350   2.156769
    47  H    3.436323   3.897982   3.413781   2.161449   1.091331
    48  H    4.861022   6.165754   7.280138   7.327271   6.277248
    49  H    7.276921   8.616381   9.662803   9.555858   8.374841
                   26         27         28         29         30
    26  C    0.000000
    27  C    1.398614   0.000000
    28  H    3.416432   2.165782   0.000000
    29  H    3.891780   3.414523   2.496107   0.000000
    30  H    3.417923   3.890995   4.315046   2.482693   0.000000
    31  H    3.378136   4.572753   5.965148   4.879794   2.633232
    32  H    2.625423   4.018388   5.896597   5.555688   3.800229
    33  H    5.120244   6.217029   7.987171   7.859794   6.305764
    34  H    6.004539   6.717988   8.353816   8.817683   7.856997
    35  H    5.679836   5.871654   7.050884   7.922771   7.676749
    36  H    4.311912   4.159874   4.855337   5.626992   5.832014
    37  H    2.950095   3.274878   4.172403   3.941313   3.460298
    38  H    5.135107   6.100039   6.973226   5.182347   2.754216
    39  H    7.020473   7.681031   7.955162   5.696752   3.895174
    40  H    7.867502   8.308459   8.290374   6.177298   5.047561
    41  H    7.174728   7.562512   7.715479   6.193005   5.312978
    42  H    5.333961   5.938560   6.688016   5.718951   4.543457
    43  H    4.624571   5.999600   7.971465   7.655998   5.718966
    44  H    7.096246   8.474602  10.443710   9.981898   7.846646
    45  H    8.703032  10.065345  11.829551  10.954396   8.639459
    46  H    8.489911   9.740497  11.184421   9.953284   7.656325
    47  H    6.568994   7.687915   8.918921   7.608060   5.438887
    48  H    1.094340   2.174730   4.328806   4.985981   4.313796
    49  H    2.159388   1.092111   2.496548   4.318910   4.983104
                   31         32         33         34         35
    31  H    0.000000
    32  H    1.797624   0.000000
    33  H    4.943271   3.918781   0.000000
    34  H    6.971866   5.720086   2.480897   0.000000
    35  H    7.582107   6.464705   4.311942   2.493914   0.000000
    36  H    6.487934   5.784387   4.989149   4.321224   2.495216
    37  H    4.235803   4.016454   4.338466   4.988904   4.309777
    38  H    2.323397   3.912268   5.710941   7.847665   8.430450
    39  H    4.697009   6.301715   7.607947   9.556713   9.857377
    40  H    6.334608   7.610035   7.932544   9.439676   9.405519
    41  H    6.438445   7.179770   6.513949   7.536767   7.306717
    42  H    4.980736   5.205853   4.127614   5.179332   5.196859
    43  H    3.429288   2.288496   2.801990   4.937232   6.524271
    44  H    5.394678   4.649306   4.131908   6.161094   8.262375
    45  H    6.452495   6.264680   5.084564   7.193829   9.356584
    46  H    6.058100   6.360165   5.040101   7.210722   9.005787
    47  H    4.389180   4.908260   4.030148   6.210743   7.453885
    48  H    3.641893   2.350101   4.639839   5.448958   5.395637
    49  H    5.501221   4.696090   6.615169   6.774514   5.748416
                   36         37         38         39         40
    36  H    0.000000
    37  H    2.476080   0.000000
    38  H    7.170776   4.739597   0.000000
    39  H    8.325409   5.986564   2.471800   0.000000
    40  H    7.835362   5.928784   4.306308   2.495102   0.000000
    41  H    5.952329   4.582688   4.986685   4.320671   2.493682
    42  H    4.159836   2.737919   4.338551   4.988791   4.311899
    43  H    6.650007   5.273270   4.868847   7.239385   8.417409
    44  H    8.814414   7.550178   6.324903   8.501701   9.752344
    45  H    9.869245   8.469646   6.492632   8.151249   9.208954
    46  H    9.139037   7.556897   5.271262   6.355841   7.060421
    47  H    7.078219   5.278112   3.355060   4.488333   5.017400
    48  H    4.512992   3.490166   5.612848   7.697554   8.590509
    49  H    4.249243   3.976693   7.138546   8.760098   9.311276
                   41         42         43         44         45
    41  H    0.000000
    42  H    2.480826   0.000000
    43  H    7.768119   5.620806   0.000000
    44  H    9.238032   7.284082   2.480919   0.000000
    45  H    8.864809   7.371405   4.318972   2.494580   0.000000
    46  H    6.819067   5.826047   5.001403   4.321251   2.493835
    47  H    4.603868   3.510437   4.349402   4.989673   4.313107
    48  H    7.773264   5.705426   4.029014   6.460661   8.273227
    49  H    8.412152   6.693834   6.506626   8.950041  10.686571
                   46         47         48         49
    46  H    0.000000
    47  H    2.483230   0.000000
    48  H    8.343710   6.649077   0.000000
    49  H   10.510382   8.533154   2.503260   0.000000
 Stoichiometry    C25H22ClP
 Framework group  C1[X(C25H22ClP)]
 Deg. of freedom   141
 Full point group                 C1      NOp   1
 Largest Abelian subgroup         C1      NOp   1
 Largest concise Abelian subgroup C1      NOp   1
                         Standard orientation:                         
 ---------------------------------------------------------------------
 Center     Atomic      Atomic             Coordinates (Angstroms)
 Number     Number       Type             X           Y           Z
 ---------------------------------------------------------------------
      1         17           0       -0.237243   -3.844888   -1.510281
      2          6           0        4.655652   -0.168876   -0.990912
      3          6           0        3.964673    0.989655   -1.369866
      4          6           0        2.588078    0.938833   -1.612500
      5          6           0        1.887849   -0.272235   -1.473682
      6          6           0        0.391079   -0.338598   -1.646306
      7         15           0       -0.499980    0.247466   -0.131401
      8          6           0        0.148954   -0.626064    1.327975
      9          6           0       -0.654805   -1.547490    2.018245
     10          6           0       -0.127424   -2.235608    3.114876
     11          6           0        1.191592   -2.004811    3.522074
     12          6           0        1.989499   -1.080433    2.836398
     13          6           0        1.475225   -0.387684    1.738557
     14          6           0       -0.245769    2.040353    0.075531
     15          6           0       -0.393751    2.876955   -1.046022
     16          6           0       -0.244730    4.257598   -0.902330
     17          6           0        0.043743    4.805659    0.354340
     18          6           0        0.175598    3.973586    1.471314
     19          6           0        0.029227    2.589106    1.338275
     20          6           0       -2.281777   -0.071933   -0.322843
     21          6           0       -2.709664   -1.325649   -0.797497
     22          6           0       -4.080092   -1.574492   -0.916504
     23          6           0       -5.012137   -0.588010   -0.570844
     24          6           0       -4.578365    0.656384   -0.097311
     25          6           0       -3.211894    0.921103    0.029822
     26          6           0        2.587771   -1.433451   -1.102149
     27          6           0        3.965406   -1.380842   -0.866618
     28          1           0        5.729641   -0.126502   -0.797935
     29          1           0        4.498545    1.936276   -1.476091
     30          1           0        2.054153    1.846647   -1.901153
     31          1           0        0.020509    0.276853   -2.479040
     32          1           0        0.054479   -1.383000   -1.789705
     33          1           0       -1.683993   -1.728594    1.705310
     34          1           0       -0.751385   -2.952134    3.651599
     35          1           0        1.598748   -2.544004    4.379552
     36          1           0        3.016930   -0.896462    3.154616
     37          1           0        2.101176    0.332849    1.210095
     38          1           0       -0.627443    2.462002   -2.027980
     39          1           0       -0.354151    4.905431   -1.773495
     40          1           0        0.161946    5.885388    0.462318
     41          1           0        0.393171    4.399985    2.451931
     42          1           0        0.128391    1.944946    2.212821
     43          1           0       -1.986690   -2.110677   -1.053954
     44          1           0       -4.418441   -2.545711   -1.282628
     45          1           0       -6.080621   -0.789475   -0.669665
     46          1           0       -5.303959    1.425627    0.172550
     47          1           0       -2.875283    1.892239    0.396689
     48          1           0        2.033483   -2.371015   -0.995761
     49          1           0        4.499968   -2.287888   -0.576416
 ---------------------------------------------------------------------
 Rotational constants (GHZ):           0.1834151           0.1653337           0.1245275
 Leave Link  202 at Sat Aug 21 12:58:05 2021, MaxMem=   104857600 cpu:               0.8 elap:               0.1
 (Enter /sw/arch/RedHatEnterpriseServer7/EB_production/2020/software/Gaussian/g16.c01/l301.exe)
 Standard basis: TZVP (5D, 7F)
 Ernie: Thresh=  0.10000D-02 Tol=  0.10000D-05 Strict=F.
 There are   678 symmetry adapted cartesian basis functions of A   symmetry.
 There are   651 symmetry adapted basis functions of A   symmetry.
   651 basis functions,  1145 primitive gaussians,   678 cartesian basis functions
   102 alpha electrons      102 beta electrons
       nuclear repulsion energy      2696.7082295755 Hartrees.
 IExCor=  404 DFT=T Ex=B Corr=P86 ExCW=0 ScaHFX=  0.000000
 ScaDFX=  1.000000  1.000000  1.000000  1.000000 ScalE2=  1.000000  1.000000
 IRadAn=      5 IRanWt=     -1 IRanGd=            0 ICorTp=0 IEmpDi=131
 NAtoms=   49 NActive=   49 NUniq=   49 SFac= 1.00D+00 NAtFMM=   60 NAOKFM=F Big=F
 Integral buffers will be    131072 words long.
 Raffenetti 2 integral format.
 Two-electron integral symmetry is turned on.
 R6Disp:  Grimme-D3 Dispersion energy=       -0.0710661850 Hartrees.
 Nuclear repulsion after empirical dispersion term =     2696.6371633905 Hartrees.
 ------------------------------------------------------------------------------
 Polarizable Continuum Model (PCM)
 =================================
 Model                : PCM.
 Atomic radii         : UFF (Universal Force Field).
 Polarization charges : Total charges.
 Charge compensation  : None.
 Solution method      : On-the-fly selection.
 Cavity type          : Scaled VdW (van der Waals Surface) (Alpha=1.100).
 Cavity algorithm     : GePol (No added spheres)
                        Default sphere list used, NSphG=   49.
                        Lebedev-Laikov grids with approx.  5.0 points / Ang**2.
                        Smoothing algorithm: York/Karplus (Gamma=1.0000).
                        Polarization charges: spherical gaussians, with
                                              point-specific exponents (IZeta= 3).
                        Self-potential: point-specific (ISelfS= 7).
                        Self-field    : sphere-specific E.n sum rule (ISelfD= 2).
 1st derivatives      : Analytical E(r).r(x)/FMM algorithm (CHGder, D1EAlg=3).
                        Cavity 1st derivative terms included.
 Solvent              : Water, Eps=  78.355300 Eps(inf)=   1.777849
 ------------------------------------------------------------------------------
 GePol: Number of generator spheres                  =      49
 GePol: Total number of spheres                      =      49
 GePol: Number of exposed spheres                    =      49 (100.00%)
 GePol: Number of points                             =    3588
 GePol: Average weight of points                     =       0.13
 GePol: Minimum weight of points                     =   0.23D-11
 GePol: Maximum weight of points                     =    0.21616
 GePol: Number of points with low weight             =     237
 GePol: Fraction of low-weight points (<1% of avg)   =       6.61%
 GePol: Cavity surface area                          =    464.200 Ang**2
 GePol: Cavity volume                                =    541.337 Ang**3
 Leave Link  301 at Sat Aug 21 12:58:05 2021, MaxMem=   104857600 cpu:               1.8 elap:               0.1
 (Enter /sw/arch/RedHatEnterpriseServer7/EB_production/2020/software/Gaussian/g16.c01/l302.exe)
 NPDir=0 NMtPBC=     1 NCelOv=     1 NCel=       1 NClECP=     1 NCelD=      1
         NCelK=      1 NCelE2=     1 NClLst=     1 CellRange=     0.0.
 One-electron integrals computed using PRISM.
 One-electron integral symmetry used in STVInt
 PrsmSu:  requested number of processors reduced to:  21 ShMem   1 Linda.
 NBasis=   651 RedAO= T EigKep=  7.43D-06  NBF=   651
 NBsUse=   651 1.00D-06 EigRej= -1.00D+00 NBFU=   651
 Precomputing XC quadrature grid using
 IXCGrd= 4 IRadAn=           5 IRanWt=          -1 IRanGd=           0 AccXCQ= 0.00D+00.
 Generated NRdTot=       0 NPtTot=           0 NUsed=           0 NTot=          32
 NSgBfM=   661   660   660   660   661 MxSgAt=    49 MxSgA2=    49.
 Leave Link  302 at Sat Aug 21 12:58:06 2021, MaxMem=   104857600 cpu:              20.0 elap:               0.9
 (Enter /sw/arch/RedHatEnterpriseServer7/EB_production/2020/software/Gaussian/g16.c01/l303.exe)
 DipDrv:  MaxL=1.
 Leave Link  303 at Sat Aug 21 12:58:06 2021, MaxMem=   104857600 cpu:               2.8 elap:               0.2
 (Enter /sw/arch/RedHatEnterpriseServer7/EB_production/2020/software/Gaussian/g16.c01/l401.exe)
 ExpMin= 9.04D-02 ExpMax= 6.95D+04 ExpMxC= 2.37D+03 IAcc=3 IRadAn=         5 AccDes= 0.00D+00
 Harris functional with IExCor=  404 and IRadAn=       5 diagonalized for initial guess.
 HarFok:  IExCor=  404 AccDes= 0.00D+00 IRadAn=         5 IDoV= 1 UseB2=F ITyADJ=14
 ICtDFT=  3500011 ScaDFX=  1.000000  1.000000  1.000000  1.000000
 FoFCou: FMM=F IPFlag=           0 FMFlag=      100000 FMFlg1=           0
         NFxFlg=           0 DoJE=T BraDBF=F KetDBF=T FulRan=T
         wScrn=  0.000000 ICntrl=       500 IOpCl=  0 I1Cent=   200000004 NGrid=           0
         NMat0=    1 NMatS0=      1 NMatT0=    0 NMatD0=    1 NMtDS0=    0 NMtDT0=    0
 Petite list used in FoFCou.
 Harris En= -1768.28542830008    
 JPrj=0 DoOrth=F DoCkMO=F.
 Leave Link  401 at Sat Aug 21 12:58:09 2021, MaxMem=   104857600 cpu:              51.9 elap:               2.2
 (Enter /sw/arch/RedHatEnterpriseServer7/EB_production/2020/software/Gaussian/g16.c01/l502.exe)
 Integral symmetry usage will be decided dynamically.
 Closed shell SCF:
 Using DIIS extrapolation, IDIIS=  1040.
 NGot=   104857600 LenX=   103914096 LenY=   103453734
 Requested convergence on RMS density matrix=1.00D-08 within 128 cycles.
 Requested convergence on MAX density matrix=1.00D-06.
 Requested convergence on             energy=1.00D-06.
 No special actions if energy rises.
 Fock matrices will be formed incrementally for  20 cycles.

 Cycle   1  Pass 1  IDiag  1:
 FoFJK:  IHMeth= 1 ICntrl=     500 DoSepK=F KAlg= 0 I1Cent=           0 FoldK=F
 IRaf= 790000000 NMat=       1 IRICut=       1 DoRegI=T DoRafI=F ISym2E= 0 IDoP0=0 IntGTp=1.
 FoFCou: FMM=F IPFlag=           0 FMFlag=      100000 FMFlg1=           0
         NFxFlg=           0 DoJE=T BraDBF=F KetDBF=F FulRan=T
         wScrn=  0.000000 ICntrl=       500 IOpCl=  0 I1Cent=           0 NGrid=           0
         NMat0=    1 NMatS0=      1 NMatT0=    0 NMatD0=    1 NMtDS0=    0 NMtDT0=    0
 Symmetry not used in FoFCou.
 Inv3:  Mode=1 IEnd=    38621232.
 Iteration    1 A*A^-1 deviation from unit magnitude is 3.55D-15 for   2031.
 Iteration    1 A*A^-1 deviation from orthogonality  is 1.89D-15 for   2706   1009.
 Iteration    1 A^-1*A deviation from unit magnitude is 3.55D-15 for   2031.
 Iteration    1 A^-1*A deviation from orthogonality  is 2.06D-15 for   2008   1877.
 E= -1767.36281611742    
 DIIS: error= 2.43D-02 at cycle   1 NSaved=   1.
 NSaved= 1 IEnMin= 1 EnMin= -1767.36281611742     IErMin= 1 ErrMin= 2.43D-02
 ErrMax= 2.43D-02  0.00D+00 EMaxC= 1.00D-01 BMatC= 5.52D-01 BMatP= 5.52D-01
 IDIUse=3 WtCom= 7.57D-01 WtEn= 2.43D-01
 Coeff-Com:  0.100D+01
 Coeff-En:   0.100D+01
 Coeff:      0.100D+01
 Gap=     0.139 Goal=   None    Shift=    0.000
 GapD=    0.139 DampG=1.000 DampE=0.500 DampFc=0.5000 IDamp=-1.
 Damping current iteration by 5.00D-01
 RMSDP=8.82D-03 MaxDP=7.42D-01              OVMax= 2.31D-01

 Cycle   2  Pass 1  IDiag  1:
 RMSU=  4.38D-03    CP:  1.05D+00
 E= -1767.50370568495     Delta-E=       -0.140889567537 Rises=F Damp=T
 DIIS: error= 7.85D-03 at cycle   2 NSaved=   2.
 NSaved= 2 IEnMin= 2 EnMin= -1767.50370568495     IErMin= 2 ErrMin= 7.85D-03
 ErrMax= 7.85D-03  0.00D+00 EMaxC= 1.00D-01 BMatC= 7.93D-02 BMatP= 5.52D-01
 IDIUse=3 WtCom= 9.21D-01 WtEn= 7.85D-02
 Coeff-Com:  0.207D+00 0.793D+00
 Coeff-En:   0.369D+00 0.631D+00
 Coeff:      0.220D+00 0.780D+00
 Gap=     0.184 Goal=   None    Shift=    0.000
 RMSDP=4.42D-03 MaxDP=3.84D-01 DE=-1.41D-01 OVMax= 2.56D-01

 Cycle   3  Pass 1  IDiag  1:
 RMSU=  2.16D-03    CP:  9.56D-01  1.48D-01
 E= -1767.83689752238     Delta-E=       -0.333191837426 Rises=F Damp=F
 DIIS: error= 1.30D-02 at cycle   3 NSaved=   3.
 NSaved= 3 IEnMin= 3 EnMin= -1767.83689752238     IErMin= 2 ErrMin= 7.85D-03
 ErrMax= 1.30D-02  0.00D+00 EMaxC= 1.00D-01 BMatC= 8.13D-02 BMatP= 7.93D-02
 IDIUse=3 WtCom= 8.70D-01 WtEn= 1.30D-01
 Coeff-Com:  0.728D-01 0.500D+00 0.427D+00
 Coeff-En:   0.000D+00 0.000D+00 0.100D+01
 Coeff:      0.633D-01 0.435D+00 0.502D+00
 Gap=     0.113 Goal=   None    Shift=    0.000
 RMSDP=2.27D-03 MaxDP=1.77D-01 DE=-3.33D-01 OVMax= 1.46D-01

 Cycle   4  Pass 1  IDiag  1:
 RMSU=  1.04D-03    CP:  1.00D+00  5.27D-01  5.12D-01
 E= -1767.88675006639     Delta-E=       -0.049852544010 Rises=F Damp=F
 DIIS: error= 9.87D-03 at cycle   4 NSaved=   4.
 NSaved= 4 IEnMin= 4 EnMin= -1767.88675006639     IErMin= 2 ErrMin= 7.85D-03
 ErrMax= 9.87D-03  0.00D+00 EMaxC= 1.00D-01 BMatC= 4.28D-02 BMatP= 7.93D-02
 IDIUse=3 WtCom= 9.01D-01 WtEn= 9.87D-02
 Coeff-Com:  0.127D-01 0.174D+00 0.396D+00 0.418D+00
 Coeff-En:   0.000D+00 0.000D+00 0.379D+00 0.621D+00
 Coeff:      0.115D-01 0.156D+00 0.394D+00 0.438D+00
 Gap=     0.115 Goal=   None    Shift=    0.000
 RMSDP=8.71D-04 MaxDP=9.30D-02 DE=-4.99D-02 OVMax= 7.10D-02

 Cycle   5  Pass 1  IDiag  1:
 RMSU=  4.41D-04    CP:  9.81D-01  4.09D-01  6.31D-01  5.76D-01
 E= -1767.93616707174     Delta-E=       -0.049417005353 Rises=F Damp=F
 DIIS: error= 1.46D-03 at cycle   5 NSaved=   5.
 NSaved= 5 IEnMin= 5 EnMin= -1767.93616707174     IErMin= 5 ErrMin= 1.46D-03
 ErrMax= 1.46D-03  0.00D+00 EMaxC= 1.00D-01 BMatC= 1.83D-03 BMatP= 4.28D-02
 IDIUse=3 WtCom= 9.85D-01 WtEn= 1.46D-02
 Coeff-Com:  0.837D-03 0.519D-01 0.189D+00 0.259D+00 0.499D+00
 Coeff-En:   0.000D+00 0.000D+00 0.000D+00 0.000D+00 0.100D+01
 Coeff:      0.825D-03 0.511D-01 0.186D+00 0.255D+00 0.507D+00
 Gap=     0.114 Goal=   None    Shift=    0.000
 RMSDP=1.65D-04 MaxDP=1.08D-02 DE=-4.94D-02 OVMax= 1.28D-02

 Cycle   6  Pass 1  IDiag  1:
 RMSU=  9.09D-05    CP:  9.81D-01  3.92D-01  6.59D-01  5.82D-01  7.74D-01
 E= -1767.93785645546     Delta-E=       -0.001689383716 Rises=F Damp=F
 DIIS: error= 4.36D-04 at cycle   6 NSaved=   6.
 NSaved= 6 IEnMin= 6 EnMin= -1767.93785645546     IErMin= 6 ErrMin= 4.36D-04
 ErrMax= 4.36D-04  0.00D+00 EMaxC= 1.00D-01 BMatC= 2.36D-04 BMatP= 1.83D-03
 IDIUse=3 WtCom= 9.96D-01 WtEn= 4.36D-03
 Coeff-Com: -0.825D-03 0.131D-01 0.681D-01 0.106D+00 0.314D+00 0.499D+00
 Coeff-En:   0.000D+00 0.000D+00 0.000D+00 0.000D+00 0.104D+00 0.896D+00
 Coeff:     -0.822D-03 0.131D-01 0.678D-01 0.106D+00 0.313D+00 0.501D+00
 Gap=     0.114 Goal=   None    Shift=    0.000
 RMSDP=4.07D-05 MaxDP=3.17D-03 DE=-1.69D-03 OVMax= 5.30D-03

 Cycle   7  Pass 1  IDiag  1:
 RMSU=  2.51D-05    CP:  9.81D-01  3.92D-01  6.60D-01  5.79D-01  7.87D-01
                    CP:  6.56D-01
 E= -1767.93807452210     Delta-E=       -0.000218066644 Rises=F Damp=F
 DIIS: error= 1.78D-04 at cycle   7 NSaved=   7.
 NSaved= 7 IEnMin= 7 EnMin= -1767.93807452210     IErMin= 7 ErrMin= 1.78D-04
 ErrMax= 1.78D-04  0.00D+00 EMaxC= 1.00D-01 BMatC= 2.89D-05 BMatP= 2.36D-04
 IDIUse=3 WtCom= 9.98D-01 WtEn= 1.78D-03
 Coeff-Com: -0.620D-03 0.293D-02 0.227D-01 0.394D-01 0.146D+00 0.322D+00
 Coeff-Com:  0.467D+00
 Coeff-En:   0.000D+00 0.000D+00 0.000D+00 0.000D+00 0.000D+00 0.890D-01
 Coeff-En:   0.911D+00
 Coeff:     -0.619D-03 0.293D-02 0.226D-01 0.393D-01 0.146D+00 0.322D+00
 Coeff:      0.468D+00
 Gap=     0.114 Goal=   None    Shift=    0.000
 RMSDP=2.06D-05 MaxDP=2.50D-03 DE=-2.18D-04 OVMax= 1.69D-03

 Cycle   8  Pass 1  IDiag  1:
 RMSU=  1.19D-05    CP:  9.81D-01  3.94D-01  6.58D-01  5.85D-01  7.75D-01
                    CP:  6.78D-01  5.20D-01
 E= -1767.93810138021     Delta-E=       -0.000026858113 Rises=F Damp=F
 DIIS: error= 5.91D-05 at cycle   8 NSaved=   8.
 NSaved= 8 IEnMin= 8 EnMin= -1767.93810138021     IErMin= 8 ErrMin= 5.91D-05
 ErrMax= 5.91D-05  0.00D+00 EMaxC= 1.00D-01 BMatC= 3.52D-06 BMatP= 2.89D-05
 IDIUse=1 WtCom= 1.00D+00 WtEn= 0.00D+00
 Coeff-Com: -0.263D-03 0.354D-03 0.572D-02 0.112D-01 0.522D-01 0.144D+00
 Coeff-Com:  0.305D+00 0.482D+00
 Coeff:     -0.263D-03 0.354D-03 0.572D-02 0.112D-01 0.522D-01 0.144D+00
 Coeff:      0.305D+00 0.482D+00
 Gap=     0.114 Goal=   None    Shift=    0.000
 RMSDP=7.38D-06 MaxDP=6.32D-04 DE=-2.69D-05 OVMax= 7.17D-04

 Cycle   9  Pass 1  IDiag  1:
 RMSU=  3.61D-06    CP:  9.81D-01  3.94D-01  6.58D-01  5.84D-01  7.80D-01
                    CP:  6.69D-01  6.13D-01  5.49D-01
 E= -1767.93810488207     Delta-E=       -0.000003501859 Rises=F Damp=F
 DIIS: error= 2.82D-05 at cycle   9 NSaved=   9.
 NSaved= 9 IEnMin= 9 EnMin= -1767.93810488207     IErMin= 9 ErrMin= 2.82D-05
 ErrMax= 2.82D-05  0.00D+00 EMaxC= 1.00D-01 BMatC= 5.45D-07 BMatP= 3.52D-06
 IDIUse=1 WtCom= 1.00D+00 WtEn= 0.00D+00
 Coeff-Com: -0.675D-04-0.931D-04 0.682D-03 0.172D-02 0.140D-01 0.509D-01
 Coeff-Com:  0.137D+00 0.325D+00 0.470D+00
 Coeff:     -0.675D-04-0.931D-04 0.682D-03 0.172D-02 0.140D-01 0.509D-01
 Coeff:      0.137D+00 0.325D+00 0.470D+00
 Gap=     0.114 Goal=   None    Shift=    0.000
 RMSDP=2.31D-06 MaxDP=1.28D-04 DE=-3.50D-06 OVMax= 2.61D-04

 Cycle  10  Pass 1  IDiag  1:
 RMSU=  1.08D-06    CP:  9.81D-01  3.94D-01  6.58D-01  5.84D-01  7.81D-01
                    CP:  6.80D-01  6.08D-01  5.82D-01  6.24D-01
 E= -1767.93810551589     Delta-E=       -0.000000633813 Rises=F Damp=F
 DIIS: error= 3.59D-06 at cycle  10 NSaved=  10.
 NSaved=10 IEnMin=10 EnMin= -1767.93810551589     IErMin=10 ErrMin= 3.59D-06
 ErrMax= 3.59D-06  0.00D+00 EMaxC= 1.00D-01 BMatC= 1.62D-08 BMatP= 5.45D-07
 IDIUse=1 WtCom= 1.00D+00 WtEn= 0.00D+00
 Coeff-Com: -0.266D-04-0.678D-04 0.133D-03 0.449D-03 0.559D-02 0.221D-01
 Coeff-Com:  0.626D-01 0.160D+00 0.261D+00 0.488D+00
 Coeff:     -0.266D-04-0.678D-04 0.133D-03 0.449D-03 0.559D-02 0.221D-01
 Coeff:      0.626D-01 0.160D+00 0.261D+00 0.488D+00
 Gap=     0.114 Goal=   None    Shift=    0.000
 RMSDP=4.57D-07 MaxDP=2.72D-05 DE=-6.34D-07 OVMax= 4.77D-05

 Cycle  11  Pass 1  IDiag  1:
 RMSU=  3.34D-07    CP:  9.81D-01  3.94D-01  6.58D-01  5.84D-01  7.81D-01
                    CP:  6.81D-01  6.10D-01  5.91D-01  6.17D-01  8.51D-01
 E= -1767.93810554713     Delta-E=       -0.000000031245 Rises=F Damp=F
 DIIS: error= 1.02D-06 at cycle  11 NSaved=  11.
 NSaved=11 IEnMin=11 EnMin= -1767.93810554713     IErMin=11 ErrMin= 1.02D-06
 ErrMax= 1.02D-06  0.00D+00 EMaxC= 1.00D-01 BMatC= 1.55D-09 BMatP= 1.62D-08
 IDIUse=1 WtCom= 1.00D+00 WtEn= 0.00D+00
 Coeff-Com: -0.640D-05-0.133D-04 0.587D-05 0.363D-04 0.116D-02 0.489D-02
 Coeff-Com:  0.143D-01 0.404D-01 0.757D-01 0.268D+00 0.595D+00
 Coeff:     -0.640D-05-0.133D-04 0.587D-05 0.363D-04 0.116D-02 0.489D-02
 Coeff:      0.143D-01 0.404D-01 0.757D-01 0.268D+00 0.595D+00
 Gap=     0.114 Goal=   None    Shift=    0.000
 RMSDP=1.61D-07 MaxDP=9.94D-06 DE=-3.12D-08 OVMax= 1.51D-05

 Cycle  12  Pass 1  IDiag  1:
 RMSU=  1.03D-07    CP:  9.81D-01  3.94D-01  6.58D-01  5.84D-01  7.81D-01
                    CP:  6.81D-01  6.09D-01  5.98D-01  6.21D-01  8.24D-01
                    CP:  8.93D-01
 E= -1767.93810554848     Delta-E=       -0.000000001350 Rises=F Damp=F
 DIIS: error= 4.04D-07 at cycle  12 NSaved=  12.
 NSaved=12 IEnMin=12 EnMin= -1767.93810554848     IErMin=12 ErrMin= 4.04D-07
 ErrMax= 4.04D-07  0.00D+00 EMaxC= 1.00D-01 BMatC= 2.08D-10 BMatP= 1.55D-09
 IDIUse=1 WtCom= 1.00D+00 WtEn= 0.00D+00
 Coeff-Com: -0.248D-05-0.277D-05-0.291D-05-0.138D-05 0.403D-03 0.177D-02
 Coeff-Com:  0.532D-02 0.159D-01 0.323D-01 0.137D+00 0.367D+00 0.440D+00
 Coeff:     -0.248D-05-0.277D-05-0.291D-05-0.138D-05 0.403D-03 0.177D-02
 Coeff:      0.532D-02 0.159D-01 0.323D-01 0.137D+00 0.367D+00 0.440D+00
 Gap=     0.114 Goal=   None    Shift=    0.000
 RMSDP=6.22D-08 MaxDP=3.88D-06 DE=-1.35D-09 OVMax= 5.43D-06

 Cycle  13  Pass 1  IDiag  1:
 RMSU=  3.32D-08    CP:  9.81D-01  3.94D-01  6.58D-01  5.84D-01  7.81D-01
                    CP:  6.81D-01  6.09D-01  5.96D-01  6.25D-01  8.40D-01
                    CP:  8.67D-01  6.61D-01
 E= -1767.93810554865     Delta-E=       -0.000000000165 Rises=F Damp=F
 DIIS: error= 1.40D-07 at cycle  13 NSaved=  13.
 NSaved=13 IEnMin=13 EnMin= -1767.93810554865     IErMin=13 ErrMin= 1.40D-07
 ErrMax= 1.40D-07  0.00D+00 EMaxC= 1.00D-01 BMatC= 2.48D-11 BMatP= 2.08D-10
 IDIUse=1 WtCom= 1.00D+00 WtEn= 0.00D+00
 Coeff-Com: -0.886D-06-0.389D-06-0.465D-05-0.814D-05 0.117D-03 0.560D-03
 Coeff-Com:  0.175D-02 0.560D-02 0.123D-01 0.591D-01 0.170D+00 0.288D+00
 Coeff-Com:  0.462D+00
 Coeff:     -0.886D-06-0.389D-06-0.465D-05-0.814D-05 0.117D-03 0.560D-03
 Coeff:      0.175D-02 0.560D-02 0.123D-01 0.591D-01 0.170D+00 0.288D+00
 Coeff:      0.462D+00
 Gap=     0.114 Goal=   None    Shift=    0.000
 RMSDP=2.00D-08 MaxDP=1.04D-06 DE=-1.65D-10 OVMax= 1.84D-06

 Cycle  14  Pass 1  IDiag  1:
 RMSU=  1.18D-08    CP:  9.81D-01  3.94D-01  6.58D-01  5.84D-01  7.81D-01
                    CP:  6.81D-01  6.10D-01  5.96D-01  6.25D-01  8.48D-01
                    CP:  8.54D-01  6.36D-01  7.35D-01
 E= -1767.93810554870     Delta-E=       -0.000000000054 Rises=F Damp=F
 DIIS: error= 3.30D-08 at cycle  14 NSaved=  14.
 NSaved=14 IEnMin=14 EnMin= -1767.93810554870     IErMin=14 ErrMin= 3.30D-08
 ErrMax= 3.30D-08  0.00D+00 EMaxC= 1.00D-01 BMatC= 1.42D-12 BMatP= 2.48D-11
 IDIUse=1 WtCom= 1.00D+00 WtEn= 0.00D+00
 Coeff-Com: -0.275D-06 0.612D-07-0.222D-05-0.420D-05 0.185D-04 0.106D-03
[...]
    38  H    0.001765  -0.000211   0.000012  -0.000000  -0.000008   0.000670
    39  H   -0.000016  -0.000001  -0.000000   0.000000   0.000001  -0.000090
    40  H   -0.000016   0.000000   0.000000   0.000000   0.000001  -0.000004
    41  H   -0.000008   0.000000  -0.000000  -0.000000   0.000000  -0.000000
    42  H    0.000626   0.000026  -0.000025   0.000000  -0.000001   0.000038
    43  H    0.039698  -0.000263  -0.000014  -0.000000   0.000000  -0.000003
    44  H   -0.003710   0.000006   0.000000  -0.000000   0.000000  -0.000000
    45  H    0.019558   0.000000   0.000000  -0.000000  -0.000000  -0.000000
    46  H   -0.058189  -0.000000   0.000000   0.000000   0.000000  -0.000000
    47  H    0.442076   0.000003  -0.000000  -0.000000   0.000000   0.000010
    48  H    0.000058   0.450556  -0.073229  -0.000077  -0.000021   0.000245
    49  H   -0.000000  -0.064817   0.442404  -0.006809  -0.000166   0.000001
              31         32         33         34         35         36
     1  Cl  -0.000316   0.046231  -0.001638   0.000053  -0.000015   0.000003
     2  C    0.000151  -0.000030  -0.000001   0.000000  -0.000003   0.000468
     3  C   -0.000215  -0.000996   0.000000   0.000000  -0.000000   0.000174
     4  C    0.001328   0.002393  -0.000018   0.000000  -0.000001   0.000045
     5  C   -0.039321  -0.044614  -0.000335   0.000010  -0.000006  -0.000268
     6  C    0.389134   0.350053  -0.000199  -0.000025   0.000008  -0.000042
     7  P   -0.015445  -0.020408  -0.023580  -0.000651  -0.000070  -0.000945
     8  C    0.008235  -0.010518  -0.084298   0.020407  -0.006865   0.021522
     9  C    0.000403   0.001944   0.440535  -0.057985   0.022766  -0.002597
    10  C    0.000054  -0.000469  -0.053617   0.434219  -0.071126   0.015725
    11  C   -0.000016   0.000099   0.016609  -0.063740   0.446589  -0.065210
    12  C    0.000112  -0.000186  -0.005383   0.014068  -0.074723   0.443673
    13  C   -0.000636   0.001477   0.018664  -0.002036   0.024773  -0.067770
    14  C   -0.004583   0.008213  -0.000782   0.000007  -0.000000   0.000110
    15  C   -0.003480   0.001343  -0.000138  -0.000001   0.000000   0.000001
    16  C    0.000615  -0.000031   0.000006   0.000000  -0.000000  -0.000001
    17  C   -0.000200   0.000005   0.000000   0.000000   0.000000   0.000001
    18  C    0.000238   0.000005  -0.000023   0.000000  -0.000000  -0.000022
    19  C   -0.001218  -0.000227   0.000321  -0.000003   0.000002  -0.000158
    20  C   -0.011115   0.003502   0.018271  -0.000037   0.000010  -0.000021
    21  C    0.000718  -0.010204  -0.006218   0.000103   0.000002  -0.000000
    22  C   -0.000544   0.000102   0.000017   0.000004   0.000000   0.000000
    23  C    0.000058  -0.000205  -0.000891   0.000003  -0.000000   0.000000
    24  C   -0.000078   0.000217   0.000739  -0.000004   0.000000   0.000000
    25  C    0.001265  -0.000586   0.001937  -0.000002   0.000000   0.000001
    26  C    0.003883   0.005557   0.000024  -0.000000  -0.000019  -0.000239
    27  C   -0.000947   0.001582   0.000026   0.000000  -0.000016   0.000808
    28  H   -0.000000   0.000004  -0.000000   0.000000   0.000000  -0.000001
    29  H   -0.000006   0.000014  -0.000000  -0.000000  -0.000000   0.000000
    30  H    0.000053   0.000392   0.000000   0.000000  -0.000000   0.000003
    31  H    0.411731  -0.003699  -0.000019  -0.000000  -0.000000  -0.000000
    32  H   -0.003699   0.495767   0.000556  -0.000003   0.000000  -0.000001
    33  H   -0.000019   0.000556   0.494505  -0.006169  -0.000104   0.000010
    34  H   -0.000000  -0.000003  -0.006169   0.513410  -0.006822  -0.000113
    35  H   -0.000000   0.000000  -0.000104  -0.006822   0.515511  -0.007281
    36  H   -0.000000  -0.000001   0.000010  -0.000113  -0.007281   0.514603
    37  H    0.000080  -0.000152   0.000123   0.000010  -0.000090  -0.006236
    38  H   -0.000211   0.000357  -0.000001   0.000000   0.000000   0.000000
    39  H    0.000035  -0.000001   0.000000  -0.000000  -0.000000  -0.000000
    40  H   -0.000001   0.000000  -0.000000  -0.000000   0.000000   0.000000
    41  H    0.000000  -0.000000   0.000000  -0.000000  -0.000000  -0.000001
    42  H   -0.000010  -0.000009   0.000058   0.000002   0.000005   0.000060
    43  H   -0.000004  -0.006548   0.000848  -0.000021  -0.000001  -0.000000
    44  H   -0.000012   0.000046   0.000119  -0.000001   0.000000  -0.000000
    45  H    0.000000  -0.000000   0.000004   0.000000   0.000000  -0.000000
    46  H   -0.000003  -0.000000   0.000010  -0.000000   0.000000  -0.000000
    47  H   -0.000025   0.000013  -0.000060  -0.000001  -0.000000  -0.000000
    48  H    0.000885  -0.005172  -0.000055   0.000000  -0.000008  -0.000034
    49  H    0.000007   0.000006   0.000000   0.000000  -0.000001   0.000048
              37         38         39         40         41         42
     1  Cl  -0.000011   0.000008   0.000000   0.000000   0.000000   0.000002
     2  C   -0.003506   0.000030  -0.000001   0.000000   0.000000   0.000034
     3  C    0.001234  -0.000050  -0.000012  -0.000001   0.000001  -0.000087
     4  C   -0.006695   0.003433  -0.000121   0.000002  -0.000013   0.000283
     5  C    0.014290  -0.007744   0.000064  -0.000000  -0.000001  -0.000544
     6  C   -0.007504   0.013671  -0.000036  -0.000000  -0.000002   0.001296
     7  P   -0.005242  -0.010108  -0.000627  -0.000004  -0.000755  -0.017168
     8  C   -0.089004   0.000886   0.000015  -0.000001   0.000209   0.007421
     9  C    0.013686  -0.000059   0.000001  -0.000000   0.000023   0.001401
    10  C   -0.004473   0.000003   0.000000  -0.000000  -0.000002   0.000145
    11  C    0.014480  -0.000001   0.000000  -0.000000  -0.000000  -0.000105
    12  C   -0.041173   0.000007   0.000000   0.000000  -0.000002  -0.001840
    13  C    0.433953   0.000053  -0.000004   0.000006  -0.000095   0.003375
    14  C   -0.001432  -0.089417   0.024313  -0.006142   0.018943  -0.078779
    15  C   -0.002063   0.454203  -0.071173   0.021169  -0.002239   0.014494
    16  C    0.000448  -0.059036   0.445948  -0.069243   0.013973  -0.004301
    17  C   -0.000110   0.018306  -0.068117   0.442708  -0.061644   0.014624
    18  C    0.000160  -0.006449   0.015766  -0.064587   0.433326  -0.051352
    19  C   -0.000338   0.019275  -0.003151   0.019877  -0.057310   0.443487
    20  C    0.000499  -0.001141  -0.000078   0.000015  -0.000039  -0.002776
    21  C    0.000017  -0.000585   0.000001   0.000000  -0.000001  -0.000244
    22  C   -0.000003   0.000045  -0.000000  -0.000000  -0.000000   0.000016
    23  C   -0.000000   0.000029   0.000001  -0.000000   0.000000  -0.000006
    24  C    0.000004  -0.000437  -0.000000  -0.000000   0.000000  -0.000110
    25  C   -0.000096   0.001765  -0.000016  -0.000016  -0.000008   0.000626
    26  C    0.000287  -0.000211  -0.000001   0.000000   0.000000   0.000026
    27  C    0.005449   0.000012  -0.000000   0.000000  -0.000000  -0.000025
    28  H   -0.000073  -0.000000   0.000000   0.000000  -0.000000   0.000000
    29  H   -0.000014  -0.000008   0.000001   0.000001   0.000000  -0.000001
    30  H   -0.000000   0.000670  -0.000090  -0.000004  -0.000000   0.000038
    31  H    0.000080  -0.000211   0.000035  -0.000001   0.000000  -0.000010
    32  H   -0.000152   0.000357  -0.000001   0.000000  -0.000000  -0.000009
    33  H    0.000123  -0.000001   0.000000  -0.000000   0.000000   0.000058
    34  H    0.000010   0.000000  -0.000000  -0.000000  -0.000000   0.000002
    35  H   -0.000090   0.000000  -0.000000   0.000000  -0.000000   0.000005
    36  H   -0.006236   0.000000  -0.000000   0.000000  -0.000001   0.000060
    37  H    0.460710  -0.000048   0.000003  -0.000003   0.000033   0.000028
    38  H   -0.000048   0.488856  -0.006865  -0.000050   0.000005   0.000128
    39  H    0.000003  -0.006865   0.515177  -0.007212  -0.000113   0.000011
    40  H   -0.000003  -0.000050  -0.007212   0.511245  -0.006658  -0.000120
    41  H    0.000033   0.000005  -0.000113  -0.006658   0.511079  -0.005900
    42  H    0.000028   0.000128   0.000011  -0.000120  -0.005900   0.487343
    43  H   -0.000011  -0.000046  -0.000000   0.000000   0.000000  -0.000018
    44  H   -0.000000  -0.000000  -0.000000   0.000000  -0.000000  -0.000000
    45  H    0.000000  -0.000000   0.000000   0.000000  -0.000000  -0.000000
    46  H   -0.000000  -0.000005  -0.000000   0.000000  -0.000000  -0.000001
    47  H   -0.000027   0.000583   0.000003   0.000014   0.000048   0.000191
    48  H    0.000540  -0.000007   0.000000   0.000000  -0.000000   0.000009
    49  H    0.000079  -0.000000   0.000000  -0.000000   0.000000  -0.000000
              43         44         45         46         47         48
     1  Cl   0.029958   0.001876   0.000003  -0.000000  -0.000003   0.037690
     2  C    0.000000  -0.000000   0.000000  -0.000000  -0.000000   0.026247
     3  C   -0.000004   0.000000  -0.000000   0.000000  -0.000001  -0.010265
     4  C   -0.000093  -0.000000   0.000000   0.000000   0.000015   0.028030
     5  C    0.001801  -0.000017  -0.000000  -0.000001  -0.000059  -0.130482
     6  C   -0.006195   0.000170  -0.000007   0.000013   0.000697  -0.002401
     7  P   -0.022140  -0.000726  -0.000027  -0.001013  -0.026860  -0.007407
     8  C   -0.007804  -0.000045   0.000012  -0.000015  -0.002109  -0.000481
     9  C    0.004658  -0.000133  -0.000006  -0.000009   0.000771   0.001334
    10  C   -0.000258  -0.000016  -0.000000  -0.000001  -0.000028   0.000543
    11  C    0.000046   0.000001   0.000000   0.000000  -0.000007  -0.000192
    12  C    0.000008  -0.000000  -0.000000  -0.000000   0.000026   0.000804
    13  C   -0.001886   0.000002   0.000000   0.000001  -0.000463   0.002053
    14  C    0.000942  -0.000008   0.000007  -0.000015   0.017616   0.000081
    15  C   -0.000278   0.000002   0.000001  -0.000059   0.001700  -0.000023
    16  C    0.000015   0.000000   0.000000   0.000003  -0.000423  -0.000003
    17  C   -0.000003   0.000000   0.000000   0.000001  -0.000519   0.000000
    18  C    0.000007   0.000000   0.000000  -0.000002   0.000145  -0.000001
    19  C    0.000039  -0.000000   0.000001   0.000035  -0.000489  -0.000040
    20  C   -0.172476   0.028957  -0.005191   0.019633  -0.074870  -0.000272
    21  C    0.472025  -0.071522   0.020474  -0.001702   0.018349  -0.000290
    22  C   -0.100566   0.441279  -0.068534   0.013917  -0.006173  -0.000052
    23  C    0.033977  -0.069514   0.440222  -0.062964   0.015953   0.000002
    24  C   -0.013379   0.015594  -0.065030   0.433904  -0.061016  -0.000003
    25  C    0.039698  -0.003710   0.019558  -0.058189   0.442076   0.000058
    26  C   -0.000263   0.000006   0.000000  -0.000000   0.000003   0.450556
    27  C   -0.000014   0.000000   0.000000   0.000000  -0.000000  -0.073229
    28  H   -0.000000  -0.000000  -0.000000   0.000000  -0.000000  -0.000077
    29  H    0.000000   0.000000  -0.000000   0.000000   0.000000  -0.000021
    30  H   -0.000003  -0.000000  -0.000000  -0.000000   0.000010   0.000245
    31  H   -0.000004  -0.000012   0.000000  -0.000003  -0.000025   0.000885
    32  H   -0.006548   0.000046  -0.000000  -0.000000   0.000013  -0.005172
    33  H    0.000848   0.000119   0.000004   0.000010  -0.000060  -0.000055
    34  H   -0.000021  -0.000001   0.000000  -0.000000  -0.000001   0.000000
    35  H   -0.000001   0.000000   0.000000   0.000000  -0.000000  -0.000008
    36  H   -0.000000  -0.000000  -0.000000  -0.000000  -0.000000  -0.000034
    37  H   -0.000011  -0.000000   0.000000  -0.000000  -0.000027   0.000540
    38  H   -0.000046  -0.000000  -0.000000  -0.000005   0.000583  -0.000007
    39  H   -0.000000  -0.000000   0.000000  -0.000000   0.000003   0.000000
    40  H    0.000000   0.000000   0.000000   0.000000   0.000014   0.000000
    41  H    0.000000  -0.000000  -0.000000  -0.000000   0.000048  -0.000000
    42  H   -0.000018  -0.000000  -0.000000  -0.000001   0.000191   0.000009
    43  H    0.656333  -0.012078  -0.000167   0.000002   0.000426   0.000315
    44  H   -0.012078   0.524134  -0.006420  -0.000141   0.000010  -0.000005
    45  H   -0.000167  -0.006420   0.514432  -0.006780  -0.000124   0.000000
    46  H    0.000002  -0.000141  -0.006780   0.512991  -0.005959  -0.000000
    47  H    0.000426   0.000010  -0.000124  -0.005959   0.491000   0.000001
    48  H    0.000315  -0.000005   0.000000  -0.000000   0.000001   0.589178
    49  H   -0.000001   0.000000  -0.000000   0.000000   0.000000  -0.009925
              49
     1  Cl   0.000034
     2  C   -0.070793
     3  C    0.015870
     4  C   -0.003775
     5  C    0.023436
     6  C   -0.000712
     7  P    0.000017
     8  C   -0.000039
     9  C   -0.000028
    10  C    0.000001
    11  C    0.000014
    12  C    0.000320
    13  C    0.000242
    14  C   -0.000004
    15  C   -0.000001
    16  C    0.000000
    17  C   -0.000000
    18  C    0.000000
    19  C   -0.000001
    20  C   -0.000001
    21  C    0.000001
    22  C    0.000000
    23  C   -0.000000
    24  C    0.000000
    25  C   -0.000000
    26  C   -0.064817
    27  C    0.442404
    28  H   -0.006809
    29  H   -0.000166
    30  H    0.000001
    31  H    0.000007
    32  H    0.000006
    33  H    0.000000
    34  H    0.000000
    35  H   -0.000001
    36  H    0.000048
    37  H    0.000079
    38  H   -0.000000
    39  H    0.000000
    40  H   -0.000000
    41  H    0.000000
    42  H   -0.000000
    43  H   -0.000001
    44  H    0.000000
    45  H   -0.000000
    46  H    0.000000
    47  H    0.000000
    48  H   -0.009925
    49  H    0.528116
 Mulliken charges:
               1
     1  Cl  -0.857455
     2  C   -0.112109
     3  C   -0.182577
     4  C   -0.080096
     5  C   -0.026572
     6  C   -0.518016
     7  P    0.433242
     8  C   -0.229768
     9  C   -0.062384
    10  C   -0.155803
    11  C   -0.101865
    12  C   -0.160396
    13  C   -0.024724
    14  C   -0.274203
    15  C   -0.084822
    16  C   -0.105281
    17  C   -0.112940
    18  C   -0.139725
    19  C   -0.029564
    20  C   -0.274376
    21  C    0.071567
    22  C   -0.170843
    23  C   -0.088689
    24  C   -0.155104
    25  C   -0.010319
    26  C   -0.005195
    27  C   -0.191038
    28  H    0.149658
    29  H    0.147417
    30  H    0.177834
    31  H    0.263120
    32  H    0.184177
    33  H    0.190146
    34  H    0.155319
    35  H    0.157485
    36  H    0.153686
    37  H    0.222191
    38  H    0.180154
    39  H    0.156283
    40  H    0.159004
    41  H    0.157142
    42  H    0.188288
    43  H    0.103157
    44  H    0.152154
    45  H    0.157573
    46  H    0.156349
    47  H    0.189567
    48  H    0.101874
    49  H    0.146479
 Sum of Mulliken charges =  -0.00000
 Mulliken charges with hydrogens summed into heavy atoms:
               1
     1  Cl  -0.857455
     2  C    0.037549
     3  C   -0.035160
     4  C    0.097738
     5  C   -0.026572
     6  C   -0.070720
     7  P    0.433242
     8  C   -0.229768
     9  C    0.127763
    10  C   -0.000485
    11  C    0.055620
    12  C   -0.006710
    13  C    0.197467
    14  C   -0.274203
    15  C    0.095332
    16  C    0.051002
    17  C    0.046064
    18  C    0.017417
    19  C    0.158724
    20  C   -0.274376
    21  C    0.174724
    22  C   -0.018689
    23  C    0.068885
    24  C    0.001244
    25  C    0.179249
    26  C    0.096679
    27  C   -0.044559
 Electronic spatial extent (au):  <R**2>=           9922.5185
 Charge=             -0.0000 electrons
 Dipole moment (field-independent basis, Debye):
    X=             -1.5085    Y=             18.7691    Z=              7.2879  Tot=             20.1907
 Quadrupole moment (field-independent basis, Debye-Ang):
   XX=           -141.2875   YY=           -202.3521   ZZ=           -168.1952
   XY=             -0.7783   XZ=              6.7631   YZ=            -30.7158
 Traceless Quadrupole moment (field-independent basis, Debye-Ang):
   XX=             29.3241   YY=            -31.7405   ZZ=              2.4164
   XY=             -0.7783   XZ=              6.7631   YZ=            -30.7158
 Octapole moment (field-independent basis, Debye-Ang**2):
  XXX=            -58.0514  YYY=            369.1873  ZZZ=             69.8824  XYY=              7.8992
  XXY=            -13.1730  XXZ=             12.1049  XZZ=             10.2397  YZZ=             37.3318
  YYZ=            110.7014  XYZ=             -9.2610
 Hexadecapole moment (field-independent basis, Debye-Ang**3):
 XXXX=          -4988.5298 YYYY=          -5527.7914 ZZZZ=          -2473.3232 XXXY=             38.2877
 XXXZ=            105.2011 YYYX=             -9.2874 YYYZ=           -424.8509 ZZZX=            118.1393
 ZZZY=           -231.7044 XXYY=          -1808.2883 XXZZ=          -1500.4031 YYZZ=          -1274.5124
 XXYZ=            -10.2695 YYXZ=              7.9141 ZZXY=             -5.4541
 N-N= 2.696676905439D+03 E-N=-9.538296681744D+03  KE= 1.760543085891D+03
 Unable to Open any file for archive entry.
 1\1\GINC-TCN1027\SP\RBP86\TZVP\C25H22Cl1P1\ELENAA\21-Aug-2021\0\\# BP8
 6/TZVP SCRF=COSMORS geom=CHECKPOINT guess=CHECKPOINT\\COSMO-file for #
 USFRYJRPHFMVBZ-UHFFFAOYSA-M\\0,1\Cl,0,-3.7700813262,-1.2195564431,-0.4
 609195384\C,0,-1.5012616692,4.2315227932,-2.1521758206\C,0,-0.61946115
 13,4.3258459269,-1.0673806101\C,0,-0.5082008745,3.2684424237,-0.158538
 3594\C,0,-1.2757415108,2.1031032456,-0.3291608117\C,0,-1.1146341269,0.
 9151849462,0.5859668489\P,0,0.3665479148,-0.1018379071,0.1341998056\C,
 0,0.3104671154,-0.4971798532,-1.6419470591\C,0,0.0991285909,-1.8183524
 213,-2.0679551583\C,0,0.0230771494,-2.0971872222,-3.4357022509\C,0,0.1
 592867474,-1.0662455882,-4.3724364769\C,0,0.376757181,0.2497607839,-3.
 9456915956\C,0,0.453191523,0.541830959,-2.5824358156\C,0,1.8877184648,
 0.8345298533,0.4966182449\C,0,1.9934334478,1.4984044178,1.7326454849\C
 ,0,3.1659276097,2.1871998071,2.0486634653\C,0,4.2331001522,2.210127259
 6,1.1412369794\C,0,4.1319604003,1.5367436545,-0.0809186747\C,0,2.96154
 2827,0.8445271371,-0.4078662519\C,0,0.3702191614,-1.6289409682,1.12484
 65513\C,0,-0.8206885542,-2.366689831,1.2577418875\C,0,-0.8050072699,-3
 .5530891027,1.9969207029\C,0,0.3789979505,-3.9977177447,2.5983925197\C
 ,0,1.5604497302,-3.2588747171,2.4598601087\C,0,1.5629232379,-2.0715270
 958,1.7225137908\C,0,-2.1655495681,2.0175567743,-1.4141663408\C,0,-2.2
 79464229,3.079214037,-2.3174992779\H,0,-1.5838726168,5.0563828294,-2.8
 62998757\H,0,-0.0155072171,5.224923044,-0.9284792292\H,0,0.1856895406,
 3.3454792937,0.6811650393\H,0,-0.9868187642,1.1930406187,1.642369502\H
 ,0,-1.9743669317,0.2244804448,0.4942792416\H,0,-0.0051956603,-2.625041
 0966,-1.3410761878\H,0,-0.1414367587,-3.1236593811,-3.7675241902\H,0,0
 .1000126229,-1.2890687498,-5.4394929936\H,0,0.4868768582,1.0542997782,
 -4.6746036755\H,0,0.6251066175,1.5686988982,-2.2565033433\H,0,1.172112
 3822,1.4798397438,2.451059867\H,0,3.2452511728,2.7064883762,3.00503193
 93\H,0,5.1472779582,2.7518375463,1.3907889594\H,0,4.9652273801,1.54789
 11008,-0.7854103326\H,0,2.8891660633,0.3172731682,-1.3599039122\H,0,-1
 .748936885,-2.0349328388,0.7750363715\H,0,-1.7252654137,-4.1308302862,
 2.1024059129\H,0,0.3818912537,-4.9238604844,3.1765514242\H,0,2.4836102
 281,-3.6047226461,2.9280603063\H,0,2.4838573154,-1.4954558983,1.617526
 9107\H,0,-2.7577622331,1.1058050266,-1.5388474623\H,0,-2.9720088361,3.
 0024523881,-3.1584497388\\Version=ES64L-G16RevC.01\State=1-A\HF=-1767.
 8806722\RMSD=6.404e-09\Dipole=7.6948209,1.7779912,0.8544446\Quadrupole
 =-35.3172707,14.0740643,21.2432064,-9.1148632,3.8274718,-4.3323405\PG=
 C01 [X(C25H22Cl1P1)]\\@
 The archive entry for this job was punched.


 UNLESS WE CHANGE DIRECTIONS, WE WILL WIND UP WHERE WE ARE HEADED.
     -- CONFUCIUS
 Job cpu time:       0 days  0 hours 53 minutes 53.1 seconds.
 Elapsed time:       0 days  0 hours  2 minutes 16.4 seconds.
 File lengths (MBytes):  RWF=    317 Int=      0 D2E=      0 Chk=     38 Scr=      1
 Normal termination of Gaussian 16 at Sat Aug 21 13:08:21 2021.
