 Entering Gaussian System, Link 0=g16
 Input=WERYXYBDKMZEQL-UHFFFAOYSA-N.gjf
 Output=WERYXYBDKMZEQL-UHFFFAOYSA-N.log
 Initial command:
 /sw/arch/RedHatEnterpriseServer7/EB_production/2019/software/Gaussian/g16.c01/l1.exe "/scratch-local/elenaa.9715285/Gau-19935.inp" -scrdir="/scratch-local/elenaa.9715285/"
 Entering Link 1 = /sw/arch/RedHatEnterpriseServer7/EB_production/2019/software/Gaussian/g16.c01/l1.exe PID=     19936.
  
 Copyright (c) 1988-2019, Gaussian, Inc.  All Rights Reserved.
  
 This is part of the Gaussian(R) 16 program.  It is based on
 the Gaussian(R) 09 system (copyright 2009, Gaussian, Inc.),
 the Gaussian(R) 03 system (copyright 2003, Gaussian, Inc.),
 the Gaussian(R) 98 system (copyright 1998, Gaussian, Inc.),
 the Gaussian(R) 94 system (copyright 1995, Gaussian, Inc.),
 the Gaussian 92(TM) system (copyright 1992, Gaussian, Inc.),
 the Gaussian 90(TM) system (copyright 1990, Gaussian, Inc.),
 the Gaussian 88(TM) system (copyright 1988, Gaussian, Inc.),
 the Gaussian 86(TM) system (copyright 1986, Carnegie Mellon
 University), and the Gaussian 82(TM) system (copyright 1983,
 Carnegie Mellon University). Gaussian is a federally registered
 trademark of Gaussian, Inc.
  
 This software contains proprietary and confidential information,
 including trade secrets, belonging to Gaussian, Inc.
  
 This software is provided under written license and may be
 used, copied, transmitted, or stored only in accord with that
 written license.
  
 The following legend is applicable only to US Government
 contracts under FAR:
  
                    RESTRICTED RIGHTS LEGEND
  
 Use, reproduction and disclosure by the US Government is
 subject to restrictions as set forth in subparagraphs (a)
 and (c) of the Commercial Computer Software - Restricted
 Rights clause in FAR 52.227-19.
  
 Gaussian, Inc.
 340 Quinnipiac St., Bldg. 40, Wallingford CT 06492
  
  
 ---------------------------------------------------------------
 Warning -- This program may not be used in any manner that
 competes with the business of Gaussian, Inc. or will provide
 assistance to any competitor of Gaussian, Inc.  The licensee
 of this program is prohibited from giving any competitor of
 Gaussian, Inc. access to this program.  By using this program,
 the user acknowledges that Gaussian, Inc. is engaged in the
 business of creating and licensing software in the field of
 computational chemistry and represents and warrants to the
 licensee that it is not a competitor of Gaussian, Inc. and that
 it will not use this program in any manner prohibited above.
 ---------------------------------------------------------------
  

 Cite this work as:
 Gaussian 16, Revision C.01,
 M. J. Frisch, G. W. Trucks, H. B. Schlegel, G. E. Scuseria, 
 M. A. Robb, J. R. Cheeseman, G. Scalmani, V. Barone, 
 G. A. Petersson, H. Nakatsuji, X. Li, M. Caricato, A. V. Marenich, 
 J. Bloino, B. G. Janesko, R. Gomperts, B. Mennucci, H. P. Hratchian, 
 J. V. Ortiz, A. F. Izmaylov, J. L. Sonnenberg, D. Williams-Young, 
 F. Ding, F. Lipparini, F. Egidi, J. Goings, B. Peng, A. Petrone, 
 T. Henderson, D. Ranasinghe, V. G. Zakrzewski, J. Gao, N. Rega, 
 G. Zheng, W. Liang, M. Hada, M. Ehara, K. Toyota, R. Fukuda, 
 J. Hasegawa, M. Ishida, T. Nakajima, Y. Honda, O. Kitao, H. Nakai, 
 T. Vreven, K. Throssell, J. A. Montgomery, Jr., J. E. Peralta, 
 F. Ogliaro, M. J. Bearpark, J. J. Heyd, E. N. Brothers, K. N. Kudin, 
 V. N. Staroverov, T. A. Keith, R. Kobayashi, J. Normand, 
 K. Raghavachari, A. P. Rendell, J. C. Burant, S. S. Iyengar, 
 J. Tomasi, M. Cossi, J. M. Millam, M. Klene, C. Adamo, R. Cammi, 
 J. W. Ochterski, R. L. Martin, K. Morokuma, O. Farkas, 
 J. B. Foresman, and D. J. Fox, Gaussian, Inc., Wallingford CT, 2019.
 
 ******************************************
 Gaussian 16:  ES64L-G16RevC.01  3-Jul-2019
                22-Feb-2021 
 ******************************************
 %chk=WERYXYBDKMZEQL-UHFFFAOYSA-N.chk
 %NProcShared=32
 Will use up to   32 processors via shared memory.
 -------------------------------------------------------------
 #P BP86/TZVP EmpiricalDispersion=GD3 SCRF=(Solvent=Water) Opt
 -------------------------------------------------------------
 1/18=20,19=15,26=3,38=1/1,3;
 2/9=110,12=2,17=6,18=5,40=1/2;
 3/5=19,7=101,11=2,25=1,30=1,70=2201,71=1,72=1,74=404,124=31/1,2,3;
 4//1;
 5/5=2,38=5,53=1/2;
 6/7=2,8=2,9=2,10=2,28=1/1;
 7//1,2,3,16;
 1/18=20,19=15,26=3/3(2);
 2/9=110/2;
 99//99;
 2/9=110/2;
 3/5=19,7=101,11=2,25=1,30=1,70=2205,71=1,72=1,74=404,124=31/1,2,3;
 4/5=5,16=3,69=1/1;
 5/5=2,38=5,53=1/2;
 7//1,2,3,16;
 1/18=20,19=15,26=3/3(-5);
 2/9=110/2;
 6/7=2,8=2,9=2,10=2,19=2,28=1/1;
 99/9=1/99;
 Leave Link    1 at Mon Feb 22 21:22:02 2021, MaxMem=           0 cpu:               1.8 elap:               0.1
 (Enter /sw/arch/RedHatEnterpriseServer7/EB_production/2019/software/Gaussian/g16.c01/l101.exe)
 -------------------------------------
 Particle #WERYXYBDKMZEQL-UHFFFAOYSA-N
 -------------------------------------
 Symbolic Z-matrix:
 Charge =  0 Multiplicity = 1
 O                    -3.44783   0.31819  -0.18577 
 C                    -2.24368   0.33966   0.57289 
 C                    -1.81488   1.79731   0.85481 
 C                    -0.50529   1.88415   1.68042 
 C                    -0.07649   3.3418    1.96233 
 O                     1.12766   3.36327   2.721 
 H                    -3.64292  -0.63276  -0.31637 
 H                    -1.4663   -0.17834   0.00722 
 H                    -2.41432  -0.19054   1.51226 
 H                    -1.67347   2.3123   -0.09887 
 H                    -2.61768   2.30015   1.40012 
 H                     0.29751   1.38131   1.1351 
 H                    -0.6467    1.36916   2.63409 
 H                     0.09415   3.872     1.02296 
 H                    -0.85388   3.8598    2.52801 
 H                     1.32275   4.31422   2.85159 
 
 ITRead=  0  0  0  0  0  0  0  0  0  0  0  0  0  0  0  0
 MicOpt= -1 -1 -1 -1 -1 -1 -1 -1 -1 -1 -1 -1 -1 -1 -1 -1
 NAtoms=     16 NQM=       16 NQMF=       0 NMMI=      0 NMMIF=      0
                NMic=       0 NMicF=      0.
                    Isotopes and Nuclear Properties:
 (Nuclear quadrupole moments (NQMom) in fm**2, nuclear magnetic moments (NMagM)
  in nuclear magnetons)

  Atom         1           2           3           4           5           6           7           8           9          10
 IAtWgt=          16          12          12          12          12          16           1           1           1           1
 AtmWgt=  15.9949146  12.0000000  12.0000000  12.0000000  12.0000000  15.9949146   1.0078250   1.0078250   1.0078250   1.0078250
 NucSpn=           0           0           0           0           0           0           1           1           1           1
 AtZEff=  -0.0000000  -0.0000000  -0.0000000  -0.0000000  -0.0000000  -0.0000000  -0.0000000  -0.0000000  -0.0000000  -0.0000000
 NQMom=    0.0000000   0.0000000   0.0000000   0.0000000   0.0000000   0.0000000   0.0000000   0.0000000   0.0000000   0.0000000
 NMagM=    0.0000000   0.0000000   0.0000000   0.0000000   0.0000000   0.0000000   2.7928460   2.7928460   2.7928460   2.7928460
 AtZNuc=   8.0000000   6.0000000   6.0000000   6.0000000   6.0000000   8.0000000   1.0000000   1.0000000   1.0000000   1.0000000

  Atom        11          12          13          14          15          16
 IAtWgt=           1           1           1           1           1           1
 AtmWgt=   1.0078250   1.0078250   1.0078250   1.0078250   1.0078250   1.0078250
 NucSpn=           1           1           1           1           1           1
 AtZEff=  -0.0000000  -0.0000000  -0.0000000  -0.0000000  -0.0000000  -0.0000000
 NQMom=    0.0000000   0.0000000   0.0000000   0.0000000   0.0000000   0.0000000
 NMagM=    2.7928460   2.7928460   2.7928460   2.7928460   2.7928460   2.7928460
 AtZNuc=   1.0000000   1.0000000   1.0000000   1.0000000   1.0000000   1.0000000
 Leave Link  101 at Mon Feb 22 21:22:02 2021, MaxMem=   104857600 cpu:               2.9 elap:               0.1
 (Enter /sw/arch/RedHatEnterpriseServer7/EB_production/2019/software/Gaussian/g16.c01/l103.exe)

 GradGradGradGradGradGradGradGradGradGradGradGradGradGradGradGradGradGrad
 Berny optimization.
 Initialization pass.
                           ----------------------------
                           !    Initial Parameters    !
                           ! (Angstroms and Degrees)  !
 --------------------------                            --------------------------
 ! Name  Definition              Value          Derivative Info.                !
 --------------------------------------------------------------------------------
 ! R1    R(1,2)                  1.4234         estimate D2E/DX2                !
 ! R2    R(1,7)                  0.9795         estimate D2E/DX2                !
 ! R3    R(2,3)                  1.5453         estimate D2E/DX2                !
 ! R4    R(2,8)                  1.0921         estimate D2E/DX2                !
 ! R5    R(2,9)                  1.0921         estimate D2E/DX2                !
 ! R6    R(3,4)                  1.5505         estimate D2E/DX2                !
 ! R7    R(3,10)                 1.093          estimate D2E/DX2                !
 ! R8    R(3,11)                 1.093          estimate D2E/DX2                !
 ! R9    R(4,5)                  1.5453         estimate D2E/DX2                !
 ! R10   R(4,12)                 1.093          estimate D2E/DX2                !
 ! R11   R(4,13)                 1.093          estimate D2E/DX2                !
 ! R12   R(5,6)                  1.4234         estimate D2E/DX2                !
 ! R13   R(5,14)                 1.0921         estimate D2E/DX2                !
 ! R14   R(5,15)                 1.0921         estimate D2E/DX2                !
 ! R15   R(6,16)                 0.9795         estimate D2E/DX2                !
 ! A1    A(2,1,7)              104.7266         estimate D2E/DX2                !
 ! A2    A(1,2,3)              110.2554         estimate D2E/DX2                !
 ! A3    A(1,2,8)              108.6003         estimate D2E/DX2                !
 ! A4    A(1,2,9)              108.5999         estimate D2E/DX2                !
 ! A5    A(3,2,8)              110.1443         estimate D2E/DX2                !
 ! A6    A(3,2,9)              110.1439         estimate D2E/DX2                !
 ! A7    A(8,2,9)              109.0558         estimate D2E/DX2                !
 ! A8    A(2,3,4)              112.6018         estimate D2E/DX2                !
 ! A9    A(2,3,10)             108.7322         estimate D2E/DX2                !
 ! A10   A(2,3,11)             108.7326         estimate D2E/DX2                !
 ! A11   A(4,3,10)             109.2034         estimate D2E/DX2                !
 ! A12   A(4,3,11)             109.2036         estimate D2E/DX2                !
 ! A13   A(10,3,11)            108.2742         estimate D2E/DX2                !
 ! A14   A(3,4,5)              112.6016         estimate D2E/DX2                !
 ! A15   A(3,4,12)             109.2032         estimate D2E/DX2                !
 ! A16   A(3,4,13)             109.2033         estimate D2E/DX2                !
 ! A17   A(5,4,12)             108.7325         estimate D2E/DX2                !
 ! A18   A(5,4,13)             108.7328         estimate D2E/DX2                !
 ! A19   A(12,4,13)            108.2744         estimate D2E/DX2                !
 ! A20   A(4,5,6)              110.2552         estimate D2E/DX2                !
 ! A21   A(4,5,14)             110.1442         estimate D2E/DX2                !
 ! A22   A(4,5,15)             110.1438         estimate D2E/DX2                !
 ! A23   A(6,5,14)             108.6002         estimate D2E/DX2                !
 ! A24   A(6,5,15)             108.6            estimate D2E/DX2                !
 ! A25   A(14,5,15)            109.0561         estimate D2E/DX2                !
 ! A26   A(5,6,16)             104.7263         estimate D2E/DX2                !
 ! D1    D(7,1,2,3)            179.9999         estimate D2E/DX2                !
 ! D2    D(7,1,2,8)             59.2354         estimate D2E/DX2                !
 ! D3    D(7,1,2,9)            -59.2363         estimate D2E/DX2                !
 ! D4    D(1,2,3,4)            179.9999         estimate D2E/DX2                !
 ! D5    D(1,2,3,10)           -58.8432         estimate D2E/DX2                !
 ! D6    D(1,2,3,11)            58.8424         estimate D2E/DX2                !
 ! D7    D(8,2,3,4)            -60.1647         estimate D2E/DX2                !
 ! D8    D(8,2,3,10)            60.9922         estimate D2E/DX2                !
 ! D9    D(8,2,3,11)           178.6779         estimate D2E/DX2                !
 ! D10   D(9,2,3,4)             60.1652         estimate D2E/DX2                !
 ! D11   D(9,2,3,10)          -178.6779         estimate D2E/DX2                !
 ! D12   D(9,2,3,11)           -60.9923         estimate D2E/DX2                !
 ! D13   D(2,3,4,5)            179.9997         estimate D2E/DX2                !
 ! D14   D(2,3,4,12)            59.112          estimate D2E/DX2                !
 ! D15   D(2,3,4,13)           -59.1122         estimate D2E/DX2                !
 ! D16   D(10,3,4,5)            59.112          estimate D2E/DX2                !
 ! D17   D(10,3,4,12)          -61.7757         estimate D2E/DX2                !
 ! D18   D(10,3,4,13)         -179.9998         estimate D2E/DX2                !
 ! D19   D(11,3,4,5)           -59.112          estimate D2E/DX2                !
 ! D20   D(11,3,4,12)         -179.9997         estimate D2E/DX2                !
 ! D21   D(11,3,4,13)           61.7761         estimate D2E/DX2                !
 ! D22   D(3,4,5,6)            179.9998         estimate D2E/DX2                !
 ! D23   D(3,4,5,14)           -60.1651         estimate D2E/DX2                !
 ! D24   D(3,4,5,15)            60.1652         estimate D2E/DX2                !
 ! D25   D(12,4,5,6)           -58.8435         estimate D2E/DX2                !
 ! D26   D(12,4,5,14)           60.9917         estimate D2E/DX2                !
 ! D27   D(12,4,5,15)         -178.6781         estimate D2E/DX2                !
 ! D28   D(13,4,5,6)            58.8428         estimate D2E/DX2                !
 ! D29   D(13,4,5,14)          178.6779         estimate D2E/DX2                !
 ! D30   D(13,4,5,15)          -60.9919         estimate D2E/DX2                !
 ! D31   D(4,5,6,16)           179.9999         estimate D2E/DX2                !
 ! D32   D(14,5,6,16)           59.2357         estimate D2E/DX2                !
 ! D33   D(15,5,6,16)          -59.2364         estimate D2E/DX2                !
 --------------------------------------------------------------------------------
 Trust Radius=3.00D-01 FncErr=1.00D-07 GrdErr=1.00D-06 EigMax=2.50D+02 EigMin=1.00D-04
 Number of steps in this run=     84 maximum allowed number of steps=    100.
 GradGradGradGradGradGradGradGradGradGradGradGradGradGradGradGradGradGrad

 Leave Link  103 at Mon Feb 22 21:22:02 2021, MaxMem=   104857600 cpu:               0.3 elap:               0.0
 (Enter /sw/arch/RedHatEnterpriseServer7/EB_production/2019/software/Gaussian/g16.c01/l202.exe)
                          Input orientation:                          
 ---------------------------------------------------------------------
 Center     Atomic      Atomic             Coordinates (Angstroms)
 Number     Number       Type             X           Y           Z
 ---------------------------------------------------------------------
      1          8           0       -3.447830    0.318190   -0.185770
      2          6           0       -2.243680    0.339660    0.572890
      3          6           0       -1.814880    1.797310    0.854810
      4          6           0       -0.505290    1.884150    1.680420
      5          6           0       -0.076490    3.341800    1.962330
      6          8           0        1.127660    3.363270    2.721000
      7          1           0       -3.642920   -0.632760   -0.316370
      8          1           0       -1.466300   -0.178340    0.007220
      9          1           0       -2.414320   -0.190540    1.512260
     10          1           0       -1.673470    2.312300   -0.098870
     11          1           0       -2.617680    2.300150    1.400120
     12          1           0        0.297510    1.381310    1.135100
     13          1           0       -0.646700    1.369160    2.634090
     14          1           0        0.094150    3.872000    1.022960
     15          1           0       -0.853880    3.859800    2.528010
     16          1           0        1.322750    4.314220    2.851590
 ---------------------------------------------------------------------
                    Distance matrix (angstroms):
                    1          2          3          4          5
     1  O    0.000000
     2  C    1.423377   0.000000
     3  C    2.436622   1.545345   0.000000
     4  C    3.820136   2.575669   1.550548   0.000000
     5  C    5.012233   3.954757   2.575665   1.545343   0.000000
     6  O    6.217470   5.012238   3.820136   2.436622   1.423383
     7  H    0.979501   1.922045   3.258624   4.490738   5.805947
     8  H    2.051889   1.092074   2.177868   2.824359   4.259743
     9  H    2.051891   1.092083   2.177870   2.824360   4.259746
    10  H    2.670652   2.160488   1.093031   2.171136   2.803348
    11  H    2.670648   2.160488   1.093023   2.171132   2.803348
    12  H    4.111264   2.803348   2.171131   1.093028   2.160488
    13  H    4.111262   2.803348   2.171127   1.093022   2.160488
    14  H    5.161029   4.259746   2.824360   2.177873   1.092083
    15  H    5.161025   4.259745   2.824356   2.177870   1.092087
    16  H    6.924756   5.805947   4.490734   3.258621   1.922045
                    6          7          8          9         10
     6  O    0.000000
     7  H    6.924760   0.000000
     8  H    5.161030   2.246972   0.000000
     9  H    5.161031   2.246977   1.778774   0.000000
    10  H    4.111269   3.549566   2.501492   3.067378   0.000000
    11  H    4.111267   3.549566   3.067370   2.501493   1.771624
    12  H    2.670654   4.657277   2.610679   3.157053   2.504833
    13  H    2.670652   4.657277   3.157047   2.610679   3.068035
    14  H    2.051899   6.004362   4.457801   4.799590   2.610679
    15  H    2.051899   6.004360   4.799585   4.457799   3.157053
    16  H    0.979500   7.691974   6.004360   6.004362   4.657277
                   11         12         13         14         15
    11  H    0.000000
    12  H    3.068034   0.000000
    13  H    2.504833   1.771624   0.000000
    14  H    3.157053   2.501493   3.067378   0.000000
    15  H    2.610677   3.067378   2.501492   1.778788   0.000000
    16  H    4.657277   3.549566   3.549566   2.246977   2.246980
                   16
    16  H    0.000000
 Stoichiometry    C4H10O2
 Framework group  C1[X(C4H10O2)]
 Deg. of freedom    42
 Full point group                 C1      NOp   1
 Largest Abelian subgroup         C1      NOp   1
 Largest concise Abelian subgroup C1      NOp   1
                         Standard orientation:                         
 ---------------------------------------------------------------------
 Center     Atomic      Atomic             Coordinates (Angstroms)
 Number     Number       Type             X           Y           Z
 ---------------------------------------------------------------------
      1          8           0        3.091847    0.323583   -0.000002
      2          6           0        1.917906   -0.481317    0.000003
      3          6           0        0.656825    0.411861   -0.000002
      4          6           0       -0.656827   -0.411862   -0.000001
      5          6           0       -1.917903    0.481319    0.000002
      6          8           0       -3.091849   -0.323585   -0.000002
      7          1           0        3.832908   -0.316926    0.000004
      8          1           0        1.930001   -1.114941    0.889385
      9          1           0        1.930001   -1.114944   -0.889388
     10          1           0        0.679914    1.051793    0.885814
     11          1           0        0.679915    1.051791   -0.885810
     12          1           0       -0.679912   -1.051789    0.885815
     13          1           0       -0.679912   -1.051791   -0.885809
     14          1           0       -1.929999    1.114945    0.889394
     15          1           0       -1.929996    1.114944   -0.889394
     16          1           0       -3.832905    0.316928    0.000002
 ---------------------------------------------------------------------
 Rotational constants (GHZ):          17.5156992           1.1047994           1.0671270
 Leave Link  202 at Mon Feb 22 21:22:02 2021, MaxMem=   104857600 cpu:               0.6 elap:               0.1
 (Enter /sw/arch/RedHatEnterpriseServer7/EB_production/2019/software/Gaussian/g16.c01/l301.exe)
 Standard basis: TZVP (5D, 7F)
 Ernie: Thresh=  0.10000D-02 Tol=  0.10000D-05 Strict=F.
 There are   180 symmetry adapted cartesian basis functions of A   symmetry.
 There are   174 symmetry adapted basis functions of A   symmetry.
   174 basis functions,   290 primitive gaussians,   180 cartesian basis functions
    25 alpha electrons       25 beta electrons
       nuclear repulsion energy       242.2577730374 Hartrees.
 IExCor=  404 DFT=T Ex=B Corr=P86 ExCW=0 ScaHFX=  0.000000
 ScaDFX=  1.000000  1.000000  1.000000  1.000000 ScalE2=  1.000000  1.000000
 IRadAn=      5 IRanWt=     -1 IRanGd=            0 ICorTp=0 IEmpDi=131
 NAtoms=   16 NActive=   16 NUniq=   16 SFac= 1.00D+00 NAtFMM=   60 NAOKFM=F Big=F
 Integral buffers will be    131072 words long.
 Raffenetti 2 integral format.
 Two-electron integral symmetry is turned on.
 R6Disp:  Grimme-D3 Dispersion energy=       -0.0112346400 Hartrees.
 Nuclear repulsion after empirical dispersion term =      242.2465383974 Hartrees.
 ------------------------------------------------------------------------------
 Polarizable Continuum Model (PCM)
 =================================
 Model                : PCM.
 Atomic radii         : UFF (Universal Force Field).
 Polarization charges : Total charges.
 Charge compensation  : None.
 Solution method      : On-the-fly selection.
 Cavity type          : Scaled VdW (van der Waals Surface) (Alpha=1.100).
 Cavity algorithm     : GePol (No added spheres)
                        Default sphere list used, NSphG=   16.
                        Lebedev-Laikov grids with approx.  5.0 points / Ang**2.
                        Smoothing algorithm: York/Karplus (Gamma=1.0000).
                        Polarization charges: spherical gaussians, with
                                              point-specific exponents (IZeta= 3).
                        Self-potential: point-specific (ISelfS= 7).
                        Self-field    : sphere-specific E.n sum rule (ISelfD= 2).
 1st derivatives      : Analytical E(r).r(x)/FMM algorithm (CHGder, D1EAlg=3).
                        Cavity 1st derivative terms included.
 Solvent              : Water, Eps=  78.355300 Eps(inf)=   1.777849
 ------------------------------------------------------------------------------
 Spheres list:
 ISph  on   Nord     Re0    Alpha      Xe            Ye            Ze
    1   O      1    1.7500  1.100      3.091847      0.323583     -0.000002
    2   C      2    1.9255  1.100      1.917906     -0.481317      0.000003
    3   C      3    1.9255  1.100      0.656825      0.411861     -0.000002
    4   C      4    1.9255  1.100     -0.656827     -0.411862     -0.000001
    5   C      5    1.9255  1.100     -1.917903      0.481319      0.000002
    6   O      6    1.7500  1.100     -3.091849     -0.323585     -0.000002
    7   H      7    1.4430  1.100      3.832908     -0.316926      0.000004
    8   H      8    1.4430  1.100      1.930001     -1.114941      0.889385
    9   H      9    1.4430  1.100      1.930001     -1.114944     -0.889388
   10   H     10    1.4430  1.100      0.679914      1.051793      0.885814
   11   H     11    1.4430  1.100      0.679915      1.051791     -0.885810
   12   H     12    1.4430  1.100     -0.679912     -1.051789      0.885815
   13   H     13    1.4430  1.100     -0.679912     -1.051791     -0.885809
   14   H     14    1.4430  1.100     -1.929999      1.114945      0.889394
   15   H     15    1.4430  1.100     -1.929996      1.114944     -0.889394
   16   H     16    1.4430  1.100     -3.832905      0.316928      0.000002
 ------------------------------------------------------------------------------
 GePol: Number of generator spheres                  =      16
 GePol: Total number of spheres                      =      16
 GePol: Number of exposed spheres                    =      16 (100.00%)
 GePol: Number of points                             =    1290
 GePol: Average weight of points                     =       0.13
 GePol: Minimum weight of points                     =   0.20D-06
 GePol: Maximum weight of points                     =    0.20572
 GePol: Number of points with low weight             =      56
 GePol: Fraction of low-weight points (<1% of avg)   =       4.34%
 GePol: Cavity surface area                          =    171.023 Ang**2
 GePol: Cavity volume                                =    156.294 Ang**3
 Leave Link  301 at Mon Feb 22 21:22:02 2021, MaxMem=   104857600 cpu:               1.9 elap:               0.1
 (Enter /sw/arch/RedHatEnterpriseServer7/EB_production/2019/software/Gaussian/g16.c01/l302.exe)
 NPDir=0 NMtPBC=     1 NCelOv=     1 NCel=       1 NClECP=     1 NCelD=      1
         NCelK=      1 NCelE2=     1 NClLst=     1 CellRange=     0.0.
 One-electron integrals computed using PRISM.
 One-electron integral symmetry used in STVInt
 PrsmSu:  requested number of processors reduced to:  29 ShMem   1 Linda.
 NBasis=   174 RedAO= T EigKep=  2.24D-04  NBF=   174
 NBsUse=   174 1.00D-06 EigRej= -1.00D+00 NBFU=   174
 Precomputing XC quadrature grid using
 IXCGrd= 4 IRadAn=           5 IRanWt=          -1 IRanGd=           0 AccXCQ= 0.00D+00.
 Generated NRdTot=       0 NPtTot=           0 NUsed=           0 NTot=          32
 NSgBfM=   178   178   178   178   178 MxSgAt=    16 MxSgA2=    16.
 Leave Link  302 at Mon Feb 22 21:22:03 2021, MaxMem=   104857600 cpu:               7.1 elap:               0.3
 (Enter /sw/arch/RedHatEnterpriseServer7/EB_production/2019/software/Gaussian/g16.c01/l303.exe)
 DipDrv:  MaxL=1.
 Leave Link  303 at Mon Feb 22 21:22:03 2021, MaxMem=   104857600 cpu:               0.9 elap:               0.1
 (Enter /sw/arch/RedHatEnterpriseServer7/EB_production/2019/software/Gaussian/g16.c01/l401.exe)
 ExpMin= 9.52D-02 ExpMax= 2.70D+04 ExpMxC= 9.22D+02 IAcc=3 IRadAn=         5 AccDes= 0.00D+00
 Harris functional with IExCor=  404 and IRadAn=       5 diagonalized for initial guess.
 HarFok:  IExCor=  404 AccDes= 0.00D+00 IRadAn=         5 IDoV= 1 UseB2=F ITyADJ=14
 ICtDFT=  3500011 ScaDFX=  1.000000  1.000000  1.000000  1.000000
 FoFCou: FMM=F IPFlag=           0 FMFlag=      100000 FMFlg1=           0
         NFxFlg=           0 DoJE=T BraDBF=F KetDBF=T FulRan=T
         wScrn=  0.000000 ICntrl=       500 IOpCl=  0 I1Cent=   200000004 NGrid=           0
         NMat0=    1 NMatS0=      1 NMatT0=    0 NMatD0=    1 NMtDS0=    0 NMtDT0=    0
 Petite list used in FoFCou.
 Harris En= -309.151849960928    
 JPrj=0 DoOrth=F DoCkMO=F.
 Leave Link  401 at Mon Feb 22 21:22:03 2021, MaxMem=   104857600 cpu:               8.9 elap:               0.3
 (Enter /sw/arch/RedHatEnterpriseServer7/EB_production/2019/software/Gaussian/g16.c01/l502.exe)
 Integral symmetry usage will be decided dynamically.
 Closed shell SCF:
 Using DIIS extrapolation, IDIIS=  1040.
 NGot=   104857600 LenX=   104784662 LenY=   104751821
 Requested convergence on RMS density matrix=1.00D-08 within 128 cycles.
 Requested convergence on MAX density matrix=1.00D-06.
 Requested convergence on             energy=1.00D-06.
 No special actions if energy rises.
 Fock matrices will be formed incrementally for  20 cycles.

 Cycle   1  Pass 1  IDiag  1:
 FoFJK:  IHMeth= 1 ICntrl=     500 DoSepK=F KAlg= 0 I1Cent=           0 FoldK=F
 IRaf= 930000000 NMat=       1 IRICut=       1 DoRegI=T DoRafI=F ISym2E= 0 IDoP0=0 IntGTp=1.
 FoFCou: FMM=F IPFlag=           0 FMFlag=      100000 FMFlg1=           0
         NFxFlg=           0 DoJE=T BraDBF=F KetDBF=F FulRan=T
         wScrn=  0.000000 ICntrl=       500 IOpCl=  0 I1Cent=           0 NGrid=           0
         NMat0=    1 NMatS0=      1 NMatT0=    0 NMatD0=    1 NMtDS0=    0 NMtDT0=    0
 Symmetry not used in FoFCou.
 Inv3:  Mode=1 IEnd=     4992300.
 Iteration    1 A*A^-1 deviation from unit magnitude is 3.11D-15 for    248.
 Iteration    1 A*A^-1 deviation from orthogonality  is 1.67D-15 for   1130    157.
 Iteration    1 A^-1*A deviation from unit magnitude is 3.11D-15 for    248.
 Iteration    1 A^-1*A deviation from orthogonality  is 1.78D-15 for   1099    722.
 E= -308.817038461792    
 DIIS: error= 4.05D-02 at cycle   1 NSaved=   1.
 NSaved= 1 IEnMin= 1 EnMin= -308.817038461792     IErMin= 1 ErrMin= 4.05D-02
 ErrMax= 4.05D-02  0.00D+00 EMaxC= 1.00D-01 BMatC= 2.07D-01 BMatP= 2.07D-01
 IDIUse=3 WtCom= 5.95D-01 WtEn= 4.05D-01
 Coeff-Com:  0.100D+01
 Coeff-En:   0.100D+01
 Coeff:      0.100D+01
 Gap=     0.187 Goal=   None    Shift=    0.000
 GapD=    0.187 DampG=1.000 DampE=0.500 DampFc=0.5000 IDamp=-1.
 Damping current iteration by 5.00D-01
 RMSDP=1.56D-02 MaxDP=8.69D-01              OVMax= 1.91D-01

 Cycle   2  Pass 1  IDiag  1:
 RMSU=  7.78D-03    CP:  1.05D+00
 E= -308.859418607862     Delta-E=       -0.042380146070 Rises=F Damp=T
 DIIS: error= 1.46D-02 at cycle   2 NSaved=   2.
 NSaved= 2 IEnMin= 2 EnMin= -308.859418607862     IErMin= 2 ErrMin= 1.46D-02
 ErrMax= 1.46D-02  0.00D+00 EMaxC= 1.00D-01 BMatC= 3.49D-02 BMatP= 2.07D-01
 IDIUse=3 WtCom= 8.54D-01 WtEn= 1.46D-01
 Coeff-Com:  0.264D+00 0.736D+00
 Coeff-En:   0.392D+00 0.608D+00
 Coeff:      0.283D+00 0.717D+00
 Gap=     0.249 Goal=   None    Shift=    0.000
 RMSDP=4.65D-03 MaxDP=2.93D-01 DE=-4.24D-02 OVMax= 1.23D-01

 Cycle   3  Pass 1  IDiag  1:
 RMSU=  1.35D-03    CP:  1.01D+00  4.31D-01
 E= -309.001772517716     Delta-E=       -0.142353909854 Rises=F Damp=F
 DIIS: error= 6.44D-03 at cycle   3 NSaved=   3.
 NSaved= 3 IEnMin= 3 EnMin= -309.001772517716     IErMin= 3 ErrMin= 6.44D-03
 ErrMax= 6.44D-03  0.00D+00 EMaxC= 1.00D-01 BMatC= 6.53D-03 BMatP= 3.49D-02
 IDIUse=3 WtCom= 9.36D-01 WtEn= 6.44D-02
 Coeff-Com:  0.108D+00 0.333D+00 0.559D+00
 Coeff-En:   0.000D+00 0.000D+00 0.100D+01
 Coeff:      0.101D+00 0.312D+00 0.587D+00
 Gap=     0.245 Goal=   None    Shift=    0.000
 RMSDP=7.90D-04 MaxDP=2.87D-02 DE=-1.42D-01 OVMax= 2.28D-02

 Cycle   4  Pass 1  IDiag  1:
 RMSU=  5.07D-04    CP:  1.03D+00  4.98D-01  8.05D-01
 E= -309.005159247710     Delta-E=       -0.003386729994 Rises=F Damp=F
 DIIS: error= 4.51D-03 at cycle   4 NSaved=   4.
 NSaved= 4 IEnMin= 4 EnMin= -309.005159247710     IErMin= 4 ErrMin= 4.51D-03
 ErrMax= 4.51D-03  0.00D+00 EMaxC= 1.00D-01 BMatC= 2.69D-03 BMatP= 6.53D-03
 IDIUse=3 WtCom= 9.55D-01 WtEn= 4.51D-02
 Coeff-Com:  0.272D-01 0.768D-01 0.386D+00 0.510D+00
 Coeff-En:   0.000D+00 0.000D+00 0.315D+00 0.685D+00
 Coeff:      0.260D-01 0.733D-01 0.383D+00 0.518D+00
 Gap=     0.246 Goal=   None    Shift=    0.000
 RMSDP=3.39D-04 MaxDP=1.14D-02 DE=-3.39D-03 OVMax= 8.41D-03

 Cycle   5  Pass 1  IDiag  1:
 RMSU=  9.85D-05    CP:  1.02D+00  4.70D-01  8.73D-01  5.82D-01
 E= -309.007380506504     Delta-E=       -0.002221258794 Rises=F Damp=F
 DIIS: error= 3.57D-04 at cycle   5 NSaved=   5.
 NSaved= 5 IEnMin= 5 EnMin= -309.007380506504     IErMin= 5 ErrMin= 3.57D-04
 ErrMax= 3.57D-04  0.00D+00 EMaxC= 1.00D-01 BMatC= 1.89D-05 BMatP= 2.69D-03
 IDIUse=3 WtCom= 9.96D-01 WtEn= 3.57D-03
 Coeff-Com:  0.532D-02 0.944D-02 0.102D+00 0.166D+00 0.717D+00
 Coeff-En:   0.000D+00 0.000D+00 0.000D+00 0.000D+00 0.100D+01
 Coeff:      0.530D-02 0.941D-02 0.102D+00 0.165D+00 0.718D+00
 Gap=     0.246 Goal=   None    Shift=    0.000
 RMSDP=2.64D-05 MaxDP=4.47D-04 DE=-2.22D-03 OVMax= 1.12D-03

 Cycle   6  Pass 1  IDiag  1:
 RMSU=  1.73D-05    CP:  1.02D+00  4.71D-01  8.72D-01  6.00D-01  8.38D-01
 E= -309.007393890443     Delta-E=       -0.000013383939 Rises=F Damp=F
 DIIS: error= 1.62D-04 at cycle   6 NSaved=   6.
 NSaved= 6 IEnMin= 6 EnMin= -309.007393890443     IErMin= 6 ErrMin= 1.62D-04
 ErrMax= 1.62D-04  0.00D+00 EMaxC= 1.00D-01 BMatC= 4.55D-06 BMatP= 1.89D-05
 IDIUse=3 WtCom= 9.98D-01 WtEn= 1.62D-03
 Coeff-Com:  0.225D-02 0.244D-02 0.474D-01 0.802D-01 0.427D+00 0.440D+00
 Coeff-En:   0.000D+00 0.000D+00 0.000D+00 0.000D+00 0.115D+00 0.885D+00
 Coeff:      0.225D-02 0.244D-02 0.473D-01 0.801D-01 0.427D+00 0.441D+00
 Gap=     0.246 Goal=   None    Shift=    0.000
 RMSDP=1.02D-05 MaxDP=2.92D-04 DE=-1.34D-05 OVMax= 4.36D-04

 Cycle   7  Pass 1  IDiag  1:
 RMSU=  5.17D-06    CP:  1.02D+00  4.71D-01  8.72D-01  5.97D-01  8.45D-01
                    CP:  6.25D-01
 E= -309.007397974785     Delta-E=       -0.000004084343 Rises=F Damp=F
 DIIS: error= 1.53D-05 at cycle   7 NSaved=   7.
 NSaved= 7 IEnMin= 7 EnMin= -309.007397974785     IErMin= 7 ErrMin= 1.53D-05
 ErrMax= 1.53D-05  0.00D+00 EMaxC= 1.00D-01 BMatC= 4.33D-08 BMatP= 4.55D-06
 IDIUse=1 WtCom= 1.00D+00 WtEn= 0.00D+00
 Coeff-Com:  0.363D-03-0.142D-03 0.497D-02 0.804D-02 0.554D-01 0.103D+00
 Coeff-Com:  0.829D+00
 Coeff:      0.363D-03-0.142D-03 0.497D-02 0.804D-02 0.554D-01 0.103D+00
 Coeff:      0.829D+00
 Gap=     0.246 Goal=   None    Shift=    0.000
 RMSDP=1.66D-06 MaxDP=4.38D-05 DE=-4.08D-06 OVMax= 4.04D-05

 Cycle   8  Pass 1  IDiag  1:
 RMSU=  1.05D-06    CP:  1.02D+00  4.70D-01  8.72D-01  5.97D-01  8.50D-01
                    CP:  6.48D-01  9.11D-01
 E= -309.007397981757     Delta-E=       -0.000000006972 Rises=F Damp=F
 DIIS: error= 3.30D-06 at cycle   8 NSaved=   8.
 NSaved= 8 IEnMin= 8 EnMin= -309.007397981757     IErMin= 8 ErrMin= 3.30D-06
 ErrMax= 3.30D-06  0.00D+00 EMaxC= 1.00D-01 BMatC= 1.49D-09 BMatP= 4.33D-08
 IDIUse=1 WtCom= 1.00D+00 WtEn= 0.00D+00
 Coeff-Com:  0.427D-04-0.120D-03-0.198D-03-0.512D-03 0.844D-04 0.122D-01
 Coeff-Com:  0.244D+00 0.745D+00
 Coeff:      0.427D-04-0.120D-03-0.198D-03-0.512D-03 0.844D-04 0.122D-01
 Coeff:      0.244D+00 0.745D+00
 Gap=     0.246 Goal=   None    Shift=    0.000
 RMSDP=3.66D-07 MaxDP=1.33D-05 DE=-6.97D-09 OVMax= 9.64D-06

 Cycle   9  Pass 1  IDiag  1:
 RMSU=  1.76D-07    CP:  1.02D+00  4.70D-01  8.72D-01  5.97D-01  8.50D-01
                    CP:  6.50D-01  9.27D-01  8.52D-01
 E= -309.007397996249     Delta-E=       -0.000000014491 Rises=F Damp=F
 DIIS: error= 3.70D-07 at cycle   9 NSaved=   9.
 NSaved= 9 IEnMin= 9 EnMin= -309.007397996249     IErMin= 9 ErrMin= 3.70D-07
 ErrMax= 3.70D-07  0.00D+00 EMaxC= 1.00D-01 BMatC= 1.39D-11 BMatP= 1.49D-09
 IDIUse=1 WtCom= 1.00D+00 WtEn= 0.00D+00
 Coeff-Com:  0.462D-05-0.203D-04-0.822D-04-0.160D-03-0.559D-03 0.102D-02
 Coeff-Com:  0.389D-01 0.159D+00 0.802D+00
 Coeff:      0.462D-05-0.203D-04-0.822D-04-0.160D-03-0.559D-03 0.102D-02
 Coeff:      0.389D-01 0.159D+00 0.802D+00
 Gap=     0.246 Goal=   None    Shift=    0.000
 RMSDP=4.85D-08 MaxDP=1.94D-06 DE=-1.45D-08 OVMax= 1.17D-06

 Cycle  10  Pass 1  IDiag  1:
 RMSU=  1.95D-08    CP:  1.02D+00  4.70D-01  8.72D-01  5.97D-01  8.50D-01
                    CP:  6.50D-01  9.29D-01  8.57D-01  8.80D-01
 E= -309.007397979387     Delta-E=        0.000000016861 Rises=F Damp=F
 DIIS: error= 5.97D-08 at cycle  10 NSaved=  10.
 NSaved=10 IEnMin= 9 EnMin= -309.007397996249     IErMin=10 ErrMin= 5.97D-08
 ErrMax= 5.97D-08  0.00D+00 EMaxC= 1.00D-01 BMatC= 4.31D-13 BMatP= 1.39D-11
 IDIUse=1 WtCom= 1.00D+00 WtEn= 0.00D+00
 Coeff-Com:  0.530D-06-0.319D-05-0.127D-04-0.260D-04-0.106D-03 0.607D-04
 Coeff-Com:  0.530D-02 0.256D-01 0.202D+00 0.767D+00
 Coeff:      0.530D-06-0.319D-05-0.127D-04-0.260D-04-0.106D-03 0.607D-04
 Coeff:      0.530D-02 0.256D-01 0.202D+00 0.767D+00
 Gap=     0.246 Goal=   None    Shift=    0.000
 RMSDP=8.48D-09 MaxDP=3.75D-07 DE= 1.69D-08 OVMax= 1.60D-07

 Cycle  11  Pass 1  IDiag  1:
 RMSU=  3.64D-09    CP:  1.02D+00  4.70D-01  8.72D-01  5.97D-01  8.50D-01
                    CP:  6.50D-01  9.29D-01  8.57D-01  8.86D-01  8.25D-01
 E= -309.007397987827     Delta-E=       -0.000000008439 Rises=F Damp=F
 DIIS: error= 1.66D-08 at cycle  11 NSaved=  11.
 NSaved=11 IEnMin= 9 EnMin= -309.007397996249     IErMin=11 ErrMin= 1.66D-08
 ErrMax= 1.66D-08  0.00D+00 EMaxC= 1.00D-01 BMatC= 4.64D-14 BMatP= 4.31D-13
 IDIUse=1 WtCom= 1.00D+00 WtEn= 0.00D+00
 Coeff-Com:  0.102D-06-0.931D-06-0.368D-05-0.780D-05-0.335D-04-0.655D-06
 Coeff-Com:  0.135D-02 0.718D-02 0.676D-01 0.332D+00 0.592D+00
 Coeff:      0.102D-06-0.931D-06-0.368D-05-0.780D-05-0.335D-04-0.655D-06
 Coeff:      0.135D-02 0.718D-02 0.676D-01 0.332D+00 0.592D+00
 Gap=     0.246 Goal=   None    Shift=    0.000
 RMSDP=2.58D-09 MaxDP=7.35D-08 DE=-8.44D-09 OVMax= 5.12D-08

 Error on total polarization charges =  0.01105
 SCF Done:  E(RB-P86) =  -309.007397988     A.U. after   11 cycles
            NFock= 11  Conv=0.26D-08     -V/T= 2.0044
 KE= 3.076390032828D+02 PE=-1.207512358610D+03 EE= 3.486194189420D+02
 Leave Link  502 at Mon Feb 22 21:22:10 2021, MaxMem=   104857600 cpu:             192.7 elap:               6.2
 (Enter /sw/arch/RedHatEnterpriseServer7/EB_production/2019/software/Gaussian/g16.c01/l601.exe)
 Copying SCF densities to generalized density rwf, IOpCl= 0 IROHF=0.

 **********************************************************************

            Population analysis using the SCF Density.

 **********************************************************************

 Orbital symmetries:
       Occupied  (A) (A) (A) (A) (A) (A) (A) (A) (A) (A) (A) (A)
                 (A) (A) (A) (A) (A) (A) (A) (A) (A) (A) (A) (A)
                 (A)
       Virtual   (A) (A) (A) (A) (A) (A) (A) (A) (A) (A) (A) (A)
                 (A) (A) (A) (A) (A) (A) (A) (A) (A) (A) (A) (A)
                 (A) (A) (A) (A) (A) (A) (A) (A) (A) (A) (A) (A)
                 (A) (A) (A) (A) (A) (A) (A) (A) (A) (A) (A) (A)
                 (A) (A) (A) (A) (A) (A) (A) (A) (A) (A) (A) (A)
                 (A) (A) (A) (A) (A) (A) (A) (A) (A) (A) (A) (A)
                 (A) (A) (A) (A) (A) (A) (A) (A) (A) (A) (A) (A)
                 (A) (A) (A) (A) (A) (A) (A) (A) (A) (A) (A) (A)
                 (A) (A) (A) (A) (A) (A) (A) (A) (A) (A) (A) (A)
                 (A) (A) (A) (A) (A) (A) (A) (A) (A) (A) (A) (A)
                 (A) (A) (A) (A) (A) (A) (A) (A) (A) (A) (A) (A)
                 (A) (A) (A) (A) (A) (A) (A) (A) (A) (A) (A) (A)
                 (A) (A) (A) (A) (A)
 The electronic state is 1-A.
 Alpha  occ. eigenvalues --  -18.77112 -18.77112  -9.93945  -9.93945  -9.89823
 Alpha  occ. eigenvalues --   -9.89815  -0.94027  -0.94000  -0.72122  -0.64640
 Alpha  occ. eigenvalues --   -0.56356  -0.52932  -0.46834  -0.45356  -0.44247
 Alpha  occ. eigenvalues --   -0.40919  -0.38761  -0.35024  -0.34444  -0.32098
 Alpha  occ. eigenvalues --   -0.30096  -0.29983  -0.28464  -0.23333  -0.23016
 Alpha virt. eigenvalues --    0.01612   0.01991   0.03188   0.06269   0.06317
 Alpha virt. eigenvalues --    0.08816   0.09834   0.11450   0.11986   0.11992
 Alpha virt. eigenvalues --    0.12060   0.13802   0.15801   0.18331   0.18580
 Alpha virt. eigenvalues --    0.20037   0.23067   0.24972   0.26442   0.26565
 Alpha virt. eigenvalues --    0.28438   0.31194   0.33477   0.33723   0.35206
 Alpha virt. eigenvalues --    0.35626   0.37661   0.38412   0.38693   0.39027
 Alpha virt. eigenvalues --    0.41822   0.42300   0.42994   0.43467   0.44909
 Alpha virt. eigenvalues --    0.45541   0.45997   0.49072   0.50608   0.53176
 Alpha virt. eigenvalues --    0.54326   0.54517   0.56807   0.59992   0.60714
 Alpha virt. eigenvalues --    0.66476   0.68694   0.81905   0.87482   1.07808
 Alpha virt. eigenvalues --    1.08009   1.18322   1.18393   1.21416   1.21623
 Alpha virt. eigenvalues --    1.22098   1.23108   1.23999   1.25673   1.26630
 Alpha virt. eigenvalues --    1.29070   1.30171   1.34626   1.35035   1.36200
 Alpha virt. eigenvalues --    1.36935   1.37228   1.38756   1.43546   1.44540
 Alpha virt. eigenvalues --    1.49600   1.55149   1.59949   1.60212   1.64357
 Alpha virt. eigenvalues --    1.64751   1.65631   1.69546   1.72698   1.72757
 Alpha virt. eigenvalues --    1.74592   1.75792   1.77699   1.78383   1.81902
 Alpha virt. eigenvalues --    1.83026   1.83714   1.85693   1.91112   1.91780
 Alpha virt. eigenvalues --    2.00083   2.01529   2.02940   2.06754   2.09797
 Alpha virt. eigenvalues --    2.11651   2.18348   2.19111   2.28452   2.28916
 Alpha virt. eigenvalues --    2.28998   2.34780   2.42826   2.43569   2.45331
 Alpha virt. eigenvalues --    2.45648   2.45947   2.49886   2.50320   2.52724
 Alpha virt. eigenvalues --    2.53199   2.57878   2.58787   2.59953   2.60966
 Alpha virt. eigenvalues --    2.61343   2.62937   2.64518   2.71782   2.84187
 Alpha virt. eigenvalues --    2.84844   2.85181   2.85276   2.85610   2.94852
 Alpha virt. eigenvalues --    2.95281   3.00035   3.04586   3.08864   3.09439
 Alpha virt. eigenvalues --    3.12719   3.20327   3.27913   3.28776   3.29284
 Alpha virt. eigenvalues --    3.31309   3.31359   3.33793   3.37232   3.86973
 Alpha virt. eigenvalues --    3.87366   4.16283   4.16674  21.66066  21.69434
 Alpha virt. eigenvalues --   21.77209  21.81754  43.08237  43.13470
          Condensed to atoms (all electrons):
               1          2          3          4          5          6
     1  O    7.983474   0.316779  -0.119020   0.011591  -0.000344   0.000000
     2  C    0.316779   5.046949   0.043847   0.071428  -0.010119  -0.000344
     3  C   -0.119020   0.043847   5.734901  -0.130142   0.071427   0.011592
     4  C    0.011591   0.071428  -0.130142   5.734897   0.043847  -0.119021
     5  C   -0.000344  -0.010119   0.071427   0.043847   5.046953   0.316778
     6  O    0.000000  -0.000344   0.011592  -0.119021   0.316778   7.983473
     7  H    0.298848  -0.044238   0.019567  -0.001867   0.000078  -0.000000
     8  H   -0.059795   0.411741  -0.047527   0.000459  -0.000664   0.000013
     9  H   -0.059796   0.411742  -0.047530   0.000459  -0.000664   0.000013
    10  H    0.012983  -0.025490   0.361194  -0.017121  -0.010736  -0.000380
    11  H    0.012983  -0.025490   0.361196  -0.017122  -0.010736  -0.000380
    12  H   -0.000380  -0.010736  -0.017121   0.361194  -0.025490   0.012983
    13  H   -0.000380  -0.010736  -0.017123   0.361196  -0.025490   0.012983
    14  H    0.000013  -0.000664   0.000459  -0.047527   0.411739  -0.059795
    15  H    0.000013  -0.000664   0.000459  -0.047529   0.411740  -0.059795
    16  H   -0.000000   0.000078  -0.001867   0.019567  -0.044238   0.298848
               7          8          9         10         11         12
     1  O    0.298848  -0.059795  -0.059796   0.012983   0.012983  -0.000380
     2  C   -0.044238   0.411741   0.411742  -0.025490  -0.025490  -0.010736
     3  C    0.019567  -0.047527  -0.047530   0.361194   0.361196  -0.017121
     4  C   -0.001867   0.000459   0.000459  -0.017121  -0.017122   0.361194
     5  C    0.000078  -0.000664  -0.000664  -0.010736  -0.010736  -0.025490
     6  O   -0.000000   0.000013   0.000013  -0.000380  -0.000380   0.012983
     7  H    0.444241  -0.004366  -0.004366  -0.000617  -0.000617   0.000013
     8  H   -0.004366   0.650272  -0.075398  -0.019522   0.014600   0.009370
     9  H   -0.004366  -0.075398   0.650277   0.014600  -0.019522  -0.002888
    10  H   -0.000617  -0.019522   0.014600   0.600460  -0.047950  -0.013108
    11  H   -0.000617   0.014600  -0.019522  -0.047950   0.600455   0.011799
    12  H    0.000013   0.009370  -0.002888  -0.013108   0.011799   0.600458
    13  H    0.000013  -0.002888   0.009370   0.011799  -0.013108  -0.047950
    14  H   -0.000001   0.000065   0.000012   0.009370  -0.002888  -0.019522
    15  H   -0.000001   0.000012   0.000065  -0.002888   0.009370   0.014600
    16  H    0.000000  -0.000001  -0.000001   0.000013   0.000013  -0.000617
              13         14         15         16
     1  O   -0.000380   0.000013   0.000013  -0.000000
     2  C   -0.010736  -0.000664  -0.000664   0.000078
     3  C   -0.017123   0.000459   0.000459  -0.001867
     4  C    0.361196  -0.047527  -0.047529   0.019567
     5  C   -0.025490   0.411739   0.411740  -0.044238
     6  O    0.012983  -0.059795  -0.059795   0.298848
     7  H    0.000013  -0.000001  -0.000001   0.000000
     8  H   -0.002888   0.000065   0.000012  -0.000001
     9  H    0.009370   0.000012   0.000065  -0.000001
    10  H    0.011799   0.009370  -0.002888   0.000013
    11  H   -0.013108  -0.002888   0.009370   0.000013
    12  H   -0.047950  -0.019522   0.014600  -0.000617
    13  H    0.600455   0.014600  -0.019523  -0.000617
    14  H    0.014600   0.650273  -0.075397  -0.004366
    15  H   -0.019523  -0.075397   0.650276  -0.004366
    16  H   -0.000617  -0.004366  -0.004366   0.444241
 Mulliken charges:
               1
     1  O   -0.396968
     2  C   -0.174083
     3  C   -0.224311
     4  C   -0.224309
     5  C   -0.174082
     6  O   -0.396968
     7  H    0.293313
     8  H    0.123630
     9  H    0.123626
    10  H    0.127394
    11  H    0.127397
    12  H    0.127396
    13  H    0.127398
    14  H    0.123628
    15  H    0.123627
    16  H    0.293312
 Sum of Mulliken charges =  -0.00000
 Mulliken charges with hydrogens summed into heavy atoms:
               1
     1  O   -0.103655
     2  C    0.073173
     3  C    0.030481
     4  C    0.030484
     5  C    0.073173
     6  O   -0.103656
 Electronic spatial extent (au):  <R**2>=           1050.4241
 Charge=             -0.0000 electrons
 Dipole moment (field-independent basis, Debye):
    X=              0.0000    Y=             -0.0000    Z=              0.0000  Tot=              0.0000
 Quadrupole moment (field-independent basis, Debye-Ang):
   XX=            -33.7767   YY=            -39.6810   ZZ=            -38.7258
   XY=            -13.8697   XZ=              0.0000   YZ=             -0.0000
 Traceless Quadrupole moment (field-independent basis, Debye-Ang):
   XX=              3.6178   YY=             -2.2865   ZZ=             -1.3313
   XY=            -13.8697   XZ=              0.0000   YZ=             -0.0000
 Octapole moment (field-independent basis, Debye-Ang**2):
  XXX=              0.0007  YYY=             -0.0001  ZZZ=              0.0000  XYY=              0.0000
  XXY=              0.0000  XXZ=              0.0003  XZZ=              0.0000  YZZ=             -0.0000
  YYZ=              0.0000  XYZ=             -0.0001
 Hexadecapole moment (field-independent basis, Debye-Ang**3):
 XXXX=           -819.4584 YYYY=           -121.8160 ZZZZ=            -67.6552 XXXY=           -155.7258
 XXXZ=              0.0003 YYYX=             -3.1007 YYYZ=             -0.0000 ZZZX=              0.0000
 ZZZY=             -0.0000 XXYY=           -210.4574 XXZZ=           -203.8939 YYZZ=            -28.6769
 XXYZ=             -0.0001 YYXZ=              0.0000 ZZXY=             -3.1729
 N-N= 2.422465383974D+02 E-N=-1.207512358561D+03  KE= 3.076390032828D+02
 No NMR shielding tensors so no spin-rotation constants.
 Leave Link  601 at Mon Feb 22 21:22:10 2021, MaxMem=   104857600 cpu:               6.7 elap:               0.3
 (Enter /sw/arch/RedHatEnterpriseServer7/EB_production/2019/software/Gaussian/g16.c01/l701.exe)
 ... and contract with generalized density number  0.
 Compute integral first derivatives.
 R6Disp: Adding Grimme-D3 dispersion energy 1st derivatives to the gradient.
 PrsmSu:  requested number of processors reduced to:  30 ShMem   1 Linda.
 D1PCM: PCM CHGder 1st derivatives, ID1Alg=3 FixD1E=F DoIter=F DoCFld=F I1PDM=0.
 GePol: Maximum number of non-zero 1st derivatives   =     198
 CoulSu:  requested number of processors reduced to:  29 ShMem   1 Linda.
 CoulSu:  requested number of processors reduced to:  30 ShMem   1 Linda.
 Leave Link  701 at Mon Feb 22 21:22:11 2021, MaxMem=   104857600 cpu:              15.4 elap:               0.5
 (Enter /sw/arch/RedHatEnterpriseServer7/EB_production/2019/software/Gaussian/g16.c01/l702.exe)
 L702 exits ... SP integral derivatives will be done elsewhere.
 Leave Link  702 at Mon Feb 22 21:22:11 2021, MaxMem=   104857600 cpu:               0.8 elap:               0.1
 (Enter /sw/arch/RedHatEnterpriseServer7/EB_production/2019/software/Gaussian/g16.c01/l703.exe)
 Integral derivatives from FoFJK, PRISM(SPDF).
 Compute integral first derivatives, UseDBF=F ICtDFT=           0.
 Calling FoFJK, ICntrl=      2527 FMM=F ISym2X=0 I1Cent= 0 IOpClX= 0 NMat=1 NMatS=1 NMatT=0.
 FoFJK:  IHMeth= 1 ICntrl=    2527 DoSepK=F KAlg= 0 I1Cent=           0 FoldK=F
 IRaf=         0 NMat=       1 IRICut=       1 DoRegI=T DoRafI=F ISym2E= 0 IDoP0=0 IntGTp=1.
 FoFCou: FMM=F IPFlag=           0 FMFlag=      100000 FMFlg1=         800
         NFxFlg=           0 DoJE=F BraDBF=F KetDBF=F FulRan=T
         wScrn=  0.000000 ICntrl=      2527 IOpCl=  0 I1Cent=           0 NGrid=           0
         NMat0=    1 NMatS0=      1 NMatT0=    0 NMatD0=    1 NMtDS0=    0 NMtDT0=    0
 Symmetry not used in FoFCou.
 Leave Link  703 at Mon Feb 22 21:22:12 2021, MaxMem=   104857600 cpu:              28.7 elap:               1.0
 (Enter /sw/arch/RedHatEnterpriseServer7/EB_production/2019/software/Gaussian/g16.c01/l716.exe)
 Dipole        = 1.01192136D-05-9.33166357D-07 1.10393374D-05
 ***** Axes restored to original set *****
 -------------------------------------------------------------------
 Center     Atomic                   Forces (Hartrees/Bohr)
 Number     Number              X              Y              Z
 -------------------------------------------------------------------
      1        8          -0.012093068   -0.003503934   -0.007646382
      2        6           0.007337731    0.013439244    0.004737744
      3        6           0.005732847   -0.010663267    0.003518712
      4        6          -0.005730525    0.010663808   -0.003527169
      5        6          -0.007341237   -0.013436660   -0.004729992
      6        8           0.012090238    0.003503477    0.007643662
      7        1          -0.003017176    0.006381645   -0.001848732
      8        1           0.010279924   -0.003196530   -0.000951894
      9        1           0.003606075   -0.003280171    0.009640690
     10        1          -0.000783141    0.002999226   -0.005300247
     11        1          -0.005144182    0.002945035    0.001619808
     12        1           0.005142077   -0.002943978   -0.001617852
     13        1           0.000782956   -0.003001157    0.005305128
     14        1          -0.003605865    0.003279966   -0.009640051
     15        1          -0.010274316    0.003193740    0.000947422
     16        1           0.003017662   -0.006380444    0.001849151
 -------------------------------------------------------------------
 Cartesian Forces:  Max     0.013439244 RMS     0.006438510
 Leave Link  716 at Mon Feb 22 21:22:12 2021, MaxMem=   104857600 cpu:               0.9 elap:               0.1
 (Enter /sw/arch/RedHatEnterpriseServer7/EB_production/2019/software/Gaussian/g16.c01/l103.exe)

 GradGradGradGradGradGradGradGradGradGradGradGradGradGradGradGradGradGrad
 Berny optimization.
 FormGI is forming the generalized inverse of G from B-inverse, IUseBI=4.
 Internal  Forces:  Max     0.017806319 RMS     0.005381578
 Search for a local minimum.
 Step number   1 out of a maximum of   84
 All quantities printed in internal units (Hartrees-Bohrs-Radians)
 RMS Force = .53816D-02 SwitMx=.10000D-02 MixMth= 1
 Mixed Optimization -- RFO/linear search
 Second derivative matrix not updated -- first step.
 ITU=  0
     Eigenvalues ---    0.00230   0.00230   0.00230   0.01382   0.01383
     Eigenvalues ---    0.03497   0.03497   0.04787   0.04787   0.05029
     Eigenvalues ---    0.05029   0.05688   0.05688   0.08196   0.08196
     Eigenvalues ---    0.11451   0.11452   0.12117   0.12117   0.13788
     Eigenvalues ---    0.13788   0.16000   0.16000   0.21975   0.21975
     Eigenvalues ---    0.22058   0.22058   0.27605   0.28051   0.28051
     Eigenvalues ---    0.34465   0.34465   0.34466   0.34466   0.34573
     Eigenvalues ---    0.34573   0.34573   0.34574   0.41955   0.41956
     Eigenvalues ---    0.51482   0.51482
 RFO step:  Lambda=-7.98210185D-03 EMin= 2.30000000D-03
 Linear search not attempted -- first point.
 Iteration  1 RMS(Cart)=  0.04875088 RMS(Int)=  0.00100313
 Iteration  2 RMS(Cart)=  0.00102106 RMS(Int)=  0.00037767
 Iteration  3 RMS(Cart)=  0.00000061 RMS(Int)=  0.00037767
 ITry= 1 IFail=0 DXMaxC= 1.41D-01 DCOld= 1.00D+10 DXMaxT= 3.00D-01 DXLimC= 3.00D+00 Rises=F
 Variable       Old X    -DE/DX   Delta X   Delta X   Delta X     New X
                                 (Linear)    (Quad)   (Total)
    R1        2.68979   0.01781   0.00000   0.04165   0.04165   2.73144
    R2        1.85099  -0.00535   0.00000  -0.01024  -0.01024   1.84075
    R3        2.92028  -0.01170   0.00000  -0.04057  -0.04057   2.87971
    R4        2.06372   0.00933   0.00000   0.02636   0.02636   2.09008
    R5        2.06374   0.00932   0.00000   0.02635   0.02635   2.09009
    R6        2.93011  -0.00728   0.00000  -0.02564  -0.02564   2.90448
    R7        2.06553   0.00594   0.00000   0.01684   0.01684   2.08237
    R8        2.06551   0.00594   0.00000   0.01685   0.01685   2.08236
    R9        2.92028  -0.01170   0.00000  -0.04056  -0.04056   2.87971
   R10        2.06552   0.00594   0.00000   0.01684   0.01684   2.08236
   R11        2.06551   0.00594   0.00000   0.01685   0.01685   2.08236
   R12        2.68980   0.01780   0.00000   0.04164   0.04164   2.73145
   R13        2.06374   0.00932   0.00000   0.02635   0.02635   2.09009
   R14        2.06374   0.00932   0.00000   0.02634   0.02634   2.09009
   R15        1.85099  -0.00535   0.00000  -0.01023  -0.01023   1.84075
    A1        1.82782   0.00920   0.00000   0.05475   0.05475   1.88258
    A2        1.92432  -0.00942   0.00000  -0.03685  -0.03662   1.88769
    A3        1.89543   0.00643   0.00000   0.04630   0.04576   1.94119
    A4        1.89543   0.00643   0.00000   0.04631   0.04577   1.94120
    A5        1.92238  -0.00099   0.00000  -0.01949  -0.01935   1.90303
    A6        1.92237  -0.00099   0.00000  -0.01948  -0.01935   1.90303
    A7        1.90338  -0.00118   0.00000  -0.01482  -0.01622   1.88717
    A8        1.96527  -0.00427   0.00000  -0.01803  -0.01798   1.94729
    A9        1.89774   0.00085   0.00000   0.00022   0.00029   1.89803
   A10        1.89774   0.00085   0.00000   0.00022   0.00029   1.89803
   A11        1.90596   0.00198   0.00000   0.01302   0.01297   1.91892
   A12        1.90596   0.00198   0.00000   0.01301   0.01296   1.91893
   A13        1.88974  -0.00132   0.00000  -0.00840  -0.00850   1.88124
   A14        1.96527  -0.00427   0.00000  -0.01803  -0.01798   1.94729
   A15        1.90596   0.00198   0.00000   0.01302   0.01297   1.91892
   A16        1.90596   0.00198   0.00000   0.01302   0.01297   1.91892
   A17        1.89774   0.00085   0.00000   0.00022   0.00029   1.89803
   A18        1.89775   0.00084   0.00000   0.00021   0.00028   1.89803
   A19        1.88975  -0.00132   0.00000  -0.00840  -0.00850   1.88125
   A20        1.92432  -0.00942   0.00000  -0.03685  -0.03662   1.88770
   A21        1.92238  -0.00099   0.00000  -0.01949  -0.01935   1.90303
   A22        1.92237  -0.00099   0.00000  -0.01948  -0.01934   1.90303
   A23        1.89543   0.00643   0.00000   0.04630   0.04576   1.94119
   A24        1.89543   0.00643   0.00000   0.04631   0.04577   1.94119
   A25        1.90339  -0.00118   0.00000  -0.01483  -0.01622   1.88717
   A26        1.82782   0.00920   0.00000   0.05475   0.05475   1.88257
    D1        3.14159  -0.00000   0.00000  -0.00000  -0.00000   3.14159
    D2        1.03385   0.00292   0.00000   0.01731   0.01845   1.05230
    D3       -1.03387  -0.00292   0.00000  -0.01731  -0.01845  -1.05232
    D4        3.14159   0.00000   0.00000   0.00000   0.00000  -3.14159
    D5       -1.02701   0.00031   0.00000   0.00490   0.00492  -1.02209
    D6        1.02699  -0.00031   0.00000  -0.00489  -0.00491   1.02209
    D7       -1.05007   0.00137   0.00000   0.02167   0.02162  -1.02845
    D8        1.06452   0.00168   0.00000   0.02657   0.02653   1.09105
    D9        3.11852   0.00105   0.00000   0.01677   0.01671   3.13523
   D10        1.05008  -0.00137   0.00000  -0.02167  -0.02163   1.02846
   D11       -3.11852  -0.00105   0.00000  -0.01677  -0.01671  -3.13523
   D12       -1.06452  -0.00168   0.00000  -0.02657  -0.02653  -1.09105
   D13        3.14159   0.00000   0.00000   0.00000   0.00000   3.14159
   D14        1.03170   0.00036   0.00000   0.00251   0.00256   1.03426
   D15       -1.03170  -0.00036   0.00000  -0.00250  -0.00256  -1.03426
   D16        1.03170   0.00036   0.00000   0.00250   0.00256   1.03426
   D17       -1.07819   0.00071   0.00000   0.00500   0.00511  -1.07308
   D18       -3.14159  -0.00000   0.00000  -0.00000  -0.00000  -3.14159
   D19       -1.03170  -0.00036   0.00000  -0.00250  -0.00256  -1.03426
   D20       -3.14159  -0.00000   0.00000  -0.00000  -0.00000  -3.14159
   D21        1.07820  -0.00071   0.00000  -0.00501  -0.00512   1.07308
   D22        3.14159   0.00000   0.00000   0.00000   0.00000   3.14159
   D23       -1.05008   0.00137   0.00000   0.02167   0.02162  -1.02846
   D24        1.05008  -0.00137   0.00000  -0.02167  -0.02162   1.02846
   D25       -1.02701   0.00031   0.00000   0.00491   0.00492  -1.02209
   D26        1.06451   0.00168   0.00000   0.02657   0.02654   1.09104
   D27       -3.11852  -0.00105   0.00000  -0.01677  -0.01671  -3.13523
   D28        1.02700  -0.00031   0.00000  -0.00490  -0.00491   1.02209
   D29        3.11852   0.00105   0.00000   0.01677   0.01671   3.13523
   D30       -1.06451  -0.00168   0.00000  -0.02657  -0.02654  -1.09105
   D31        3.14159  -0.00000   0.00000  -0.00000  -0.00000   3.14159
   D32        1.03386   0.00292   0.00000   0.01731   0.01845   1.05230
   D33       -1.03387  -0.00292   0.00000  -0.01730  -0.01844  -1.05231
         Item               Value     Threshold  Converged?
 Maximum Force            0.017806     0.000450     NO 
 RMS     Force            0.005382     0.000300     NO 
 Maximum Displacement     0.140534     0.001800     NO 
 RMS     Displacement     0.049005     0.001200     NO 
 Predicted change in Energy=-4.159931D-03
 Lowest energy point so far.  Saving SCF results.
 GradGradGradGradGradGradGradGradGradGradGradGradGradGradGradGradGradGrad

 Leave Link  103 at Mon Feb 22 21:22:12 2021, MaxMem=   104857600 cpu:               2.9 elap:               0.1
 (Enter /sw/arch/RedHatEnterpriseServer7/EB_production/2019/software/Gaussian/g16.c01/l202.exe)
                          Input orientation:                          
 ---------------------------------------------------------------------
 Center     Atomic      Atomic             Coordinates (Angstroms)
 Number     Number       Type             X           Y           Z
 ---------------------------------------------------------------------
      1          8           0       -3.431761    0.353832   -0.175361
      2          6           0       -2.208740    0.350158    0.594987
      3          6           0       -1.809112    1.796911    0.858439
      4          6           0       -0.511060    1.884548    1.676788
      5          6           0       -0.111432    3.331301    1.940238
      6          8           0        1.111590    3.327629    2.710587
      7          1           0       -3.683192   -0.572506   -0.341252
      8          1           0       -1.391933   -0.155643    0.047007
      9          1           0       -2.346481   -0.167926    1.562412
     10          1           0       -1.679577    2.310192   -0.108017
     11          1           0       -2.628555    2.297982    1.398541
     12          1           0        0.308382    1.383477    1.136682
     13          1           0       -0.640594    1.371267    2.643242
     14          1           0        0.026311    3.849385    0.972814
     15          1           0       -0.928240    3.837103    2.488218
     16          1           0        1.363023    4.253969    2.876467
 ---------------------------------------------------------------------
                    Distance matrix (angstroms):
                    1          2          3          4          5
     1  O    0.000000
     2  C    1.445417   0.000000
     3  C    2.405039   1.523878   0.000000
     4  C    3.782069   2.531159   1.536982   0.000000
     5  C    4.936159   3.885308   2.531157   1.523878   0.000000
     6  O    6.149326   4.936162   3.782070   2.405040   1.445419
     7  H    0.974084   1.975313   3.250473   4.491327   5.762150
     8  H    2.114217   1.106025   2.155210   2.755812   4.169266
     9  H    2.114219   1.106027   2.155210   2.755812   4.169266
    10  H    2.627171   2.148479   1.101940   2.175347   2.774363
    11  H    2.627171   2.148479   1.101939   2.175347   2.774363
    12  H    4.095156   2.774363   2.175345   1.101940   2.148479
    13  H    4.095157   2.774364   2.175346   1.101939   2.148479
    14  H    5.049303   4.169268   2.755813   2.155210   1.106026
    15  H    5.049302   4.169267   2.755812   2.155210   1.106026
    16  H    6.893090   5.762151   4.491326   3.250473   1.975313
                    6          7          8          9         10
     6  O    0.000000
     7  H    6.893092   0.000000
     8  H    5.049304   2.361014   0.000000
     9  H    5.049304   2.361020   1.791023   0.000000
    10  H    4.095159   3.518355   2.487391   3.062052   0.000000
    11  H    4.095159   3.518358   3.062051   2.487392   1.780569
    12  H    2.627175   4.684317   2.539164   3.104255   2.521916
    13  H    2.627174   4.684320   3.104255   2.539164   3.087149
    14  H    2.114217   5.919485   4.348423   4.702824   2.539166
    15  H    2.114218   5.919486   4.702823   4.348423   3.104255
    16  H    0.974084   7.688489   5.919485   5.919486   4.684318
                   11         12         13         14         15
    11  H    0.000000
    12  H    3.087149   0.000000
    13  H    2.521918   1.780570   0.000000
    14  H    3.104257   2.487391   3.062052   0.000000
    15  H    2.539165   3.062052   2.487393   1.791025   0.000000
    16  H    4.684320   3.518358   3.518359   2.361013   2.361018
                   16
    16  H    0.000000
 Stoichiometry    C4H10O2
 Framework group  C1[X(C4H10O2)]
 Deg. of freedom    42
 Full point group                 C1      NOp   1
 RotChk:  IX=3 Diff= 8.14D-03
 Largest Abelian subgroup         C1      NOp   1
 Largest concise Abelian subgroup C1      NOp   1
                         Standard orientation:                         
 ---------------------------------------------------------------------
 Center     Atomic      Atomic             Coordinates (Angstroms)
 Number     Number       Type             X           Y           Z
 ---------------------------------------------------------------------
      1          8           0        3.057542    0.324015   -0.000000
      2          6           0        1.875209   -0.507441   -0.000000
      3          6           0        0.653828    0.403840   -0.000001
      4          6           0       -0.653828   -0.403841   -0.000000
      5          6           0       -1.875208    0.507441    0.000000
      6          8           0       -3.057544   -0.324014   -0.000000
      7          1           0        3.835274   -0.262478    0.000006
      8          1           0        1.841625   -1.155688    0.895511
      9          1           0        1.841624   -1.155689   -0.895512
     10          1           0        0.695412    1.051864    0.890284
     11          1           0        0.695412    1.051865   -0.890284
     12          1           0       -0.695410   -1.051864    0.890285
     13          1           0       -0.695411   -1.051865   -0.890284
     14          1           0       -1.841625    1.155687    0.895513
     15          1           0       -1.841624    1.155688   -0.895512
     16          1           0       -3.835273    0.262481    0.000004
 ---------------------------------------------------------------------
 Rotational constants (GHZ):          17.0003559           1.1342862           1.0929018
 Leave Link  202 at Mon Feb 22 21:22:12 2021, MaxMem=   104857600 cpu:               0.2 elap:               0.0
 (Enter /sw/arch/RedHatEnterpriseServer7/EB_production/2019/software/Gaussian/g16.c01/l301.exe)
 Standard basis: TZVP (5D, 7F)
 Ernie: Thresh=  0.10000D-02 Tol=  0.10000D-05 Strict=F.
 There are   180 symmetry adapted cartesian basis functions of A   symmetry.
 There are   174 symmetry adapted basis functions of A   symmetry.
   174 basis functions,   290 primitive gaussians,   180 cartesian basis functions
    25 alpha electrons       25 beta electrons
       nuclear repulsion energy       243.1348975409 Hartrees.
 IExCor=  404 DFT=T Ex=B Corr=P86 ExCW=0 ScaHFX=  0.000000
 ScaDFX=  1.000000  1.000000  1.000000  1.000000 ScalE2=  1.000000  1.000000
 IRadAn=      5 IRanWt=     -1 IRanGd=            0 ICorTp=0 IEmpDi=131
 NAtoms=   16 NActive=   16 NUniq=   16 SFac= 1.00D+00 NAtFMM=   60 NAOKFM=F Big=F
 Integral buffers will be    131072 words long.
 Raffenetti 2 integral format.
 Two-electron integral symmetry is turned on.
 R6Disp:  Grimme-D3 Dispersion energy=       -0.0116721616 Hartrees.
 Nuclear repulsion after empirical dispersion term =      243.1232253793 Hartrees.
 ------------------------------------------------------------------------------
 Polarizable Continuum Model (PCM)
 =================================
 Model                : PCM.
 Atomic radii         : UFF (Universal Force Field).
 Polarization charges : Total charges.
 Charge compensation  : None.
 Solution method      : On-the-fly selection.
 Cavity type          : Scaled VdW (van der Waals Surface) (Alpha=1.100).
 Cavity algorithm     : GePol (No added spheres)
                        Default sphere list used, NSphG=   16.
                        Lebedev-Laikov grids with approx.  5.0 points / Ang**2.
                        Smoothing algorithm: York/Karplus (Gamma=1.0000).
                        Polarization charges: spherical gaussians, with
                                              point-specific exponents (IZeta= 3).
                        Self-potential: point-specific (ISelfS= 7).
                        Self-field    : sphere-specific E.n sum rule (ISelfD= 2).
 1st derivatives      : Analytical E(r).r(x)/FMM algorithm (CHGder, D1EAlg=3).
                        Cavity 1st derivative terms included.
 Solvent              : Water, Eps=  78.355300 Eps(inf)=   1.777849
 ------------------------------------------------------------------------------
 Spheres list:
 ISph  on   Nord     Re0    Alpha      Xe            Ye            Ze
    1   O      1    1.7500  1.100      3.057542      0.324015     -0.000000
    2   C      2    1.9255  1.100      1.875209     -0.507441     -0.000000
    3   C      3    1.9255  1.100      0.653828      0.403840     -0.000001
    4   C      4    1.9255  1.100     -0.653828     -0.403841     -0.000000
    5   C      5    1.9255  1.100     -1.875208      0.507441      0.000000
    6   O      6    1.7500  1.100     -3.057544     -0.324014     -0.000000
    7   H      7    1.4430  1.100      3.835274     -0.262478      0.000006
    8   H      8    1.4430  1.100      1.841625     -1.155688      0.895511
    9   H      9    1.4430  1.100      1.841624     -1.155689     -0.895512
   10   H     10    1.4430  1.100      0.695412      1.051864      0.890284
   11   H     11    1.4430  1.100      0.695412      1.051865     -0.890284
   12   H     12    1.4430  1.100     -0.695410     -1.051864      0.890285
   13   H     13    1.4430  1.100     -0.695411     -1.051865     -0.890284
   14   H     14    1.4430  1.100     -1.841625      1.155687      0.895513
   15   H     15    1.4430  1.100     -1.841624      1.155688     -0.895512
   16   H     16    1.4430  1.100     -3.835273      0.262481      0.000004
 ------------------------------------------------------------------------------
 GePol: Number of generator spheres                  =      16
 GePol: Total number of spheres                      =      16
 GePol: Number of exposed spheres                    =      16 (100.00%)
 GePol: Number of points                             =    1288
 GePol: Average weight of points                     =       0.13
 GePol: Minimum weight of points                     =   0.14D-06
 GePol: Maximum weight of points                     =    0.20577
 GePol: Number of points with low weight             =      54
 GePol: Fraction of low-weight points (<1% of avg)   =       4.19%
 GePol: Cavity surface area                          =    170.274 Ang**2
 GePol: Cavity volume                                =    156.448 Ang**3
 Leave Link  301 at Mon Feb 22 21:22:12 2021, MaxMem=   104857600 cpu:               1.9 elap:               0.1
 (Enter /sw/arch/RedHatEnterpriseServer7/EB_production/2019/software/Gaussian/g16.c01/l302.exe)
 NPDir=0 NMtPBC=     1 NCelOv=     1 NCel=       1 NClECP=     1 NCelD=      1
         NCelK=      1 NCelE2=     1 NClLst=     1 CellRange=     0.0.
 One-electron integrals computed using PRISM.
 One-electron integral symmetry used in STVInt
 PrsmSu:  requested number of processors reduced to:  29 ShMem   1 Linda.
 NBasis=   174 RedAO= T EigKep=  2.02D-04  NBF=   174
 NBsUse=   174 1.00D-06 EigRej= -1.00D+00 NBFU=   174
 Precomputing XC quadrature grid using
 IXCGrd= 4 IRadAn=           5 IRanWt=          -1 IRanGd=           0 AccXCQ= 0.00D+00.
 Generated NRdTot=       0 NPtTot=           0 NUsed=           0 NTot=          32
 NSgBfM=   178   178   178   178   178 MxSgAt=    16 MxSgA2=    16.
 Leave Link  302 at Mon Feb 22 21:22:13 2021, MaxMem=   104857600 cpu:              10.5 elap:               0.4
 (Enter /sw/arch/RedHatEnterpriseServer7/EB_production/2019/software/Gaussian/g16.c01/l303.exe)
 DipDrv:  MaxL=1.
 Leave Link  303 at Mon Feb 22 21:22:13 2021, MaxMem=   104857600 cpu:               0.8 elap:               0.1
 (Enter /sw/arch/RedHatEnterpriseServer7/EB_production/2019/software/Gaussian/g16.c01/l401.exe)
 Initial guess from the checkpoint file:  "WERYXYBDKMZEQL-UHFFFAOYSA-N.chk"
 B after Tr=    -0.000000   -0.000000    0.000000
         Rot=    0.999998   -0.000000   -0.000000    0.002012 Ang=  -0.23 deg.
 Guess basis will be translated and rotated to current coordinates.
 JPrj=2 DoOrth=T DoCkMO=T.
 Generating alternative initial guess.
 ExpMin= 9.52D-02 ExpMax= 2.70D+04 ExpMxC= 9.22D+02 IAcc=3 IRadAn=         5 AccDes= 0.00D+00
 Harris functional with IExCor=  404 and IRadAn=       5 diagonalized for initial guess.
 HarFok:  IExCor=  404 AccDes= 0.00D+00 IRadAn=         5 IDoV= 1 UseB2=F ITyADJ=14
 ICtDFT=  3500011 ScaDFX=  1.000000  1.000000  1.000000  1.000000
 FoFCou: FMM=F IPFlag=           0 FMFlag=      100000 FMFlg1=           0
         NFxFlg=           0 DoJE=T BraDBF=F KetDBF=T FulRan=T
         wScrn=  0.000000 ICntrl=       500 IOpCl=  0 I1Cent=   200000004 NGrid=           0
         NMat0=    1 NMatS0=      1 NMatT0=    0 NMatD0=    1 NMtDS0=    0 NMtDT0=    0
 Petite list used in FoFCou.
 Harris En= -309.151189143737    
 Leave Link  401 at Mon Feb 22 21:22:13 2021, MaxMem=   104857600 cpu:              14.3 elap:               0.5
 (Enter /sw/arch/RedHatEnterpriseServer7/EB_production/2019/software/Gaussian/g16.c01/l502.exe)
 Integral symmetry usage will be decided dynamically.
 Closed shell SCF:
 Using DIIS extrapolation, IDIIS=  1040.
 NGot=   104857600 LenX=   104784662 LenY=   104751821
 Requested convergence on RMS density matrix=1.00D-08 within 128 cycles.
 Requested convergence on MAX density matrix=1.00D-06.
 Requested convergence on             energy=1.00D-06.
 No special actions if energy rises.
 Fock matrices will be formed incrementally for  20 cycles.

 Cycle   1  Pass 1  IDiag  1:
 FoFJK:  IHMeth= 1 ICntrl=     500 DoSepK=F KAlg= 0 I1Cent=           0 FoldK=F
 IRaf= 930000000 NMat=       1 IRICut=       1 DoRegI=T DoRafI=F ISym2E= 0 IDoP0=0 IntGTp=1.
 FoFCou: FMM=F IPFlag=           0 FMFlag=      100000 FMFlg1=           0
         NFxFlg=           0 DoJE=T BraDBF=F KetDBF=F FulRan=T
         wScrn=  0.000000 ICntrl=       500 IOpCl=  0 I1Cent=           0 NGrid=           0
         NMat0=    1 NMatS0=      1 NMatT0=    0 NMatD0=    1 NMtDS0=    0 NMtDT0=    0
 Symmetry not used in FoFCou.
 Inv3:  Mode=1 IEnd=     4976832.
 Iteration    1 A*A^-1 deviation from unit magnitude is 3.66D-15 for    974.
 Iteration    1 A*A^-1 deviation from orthogonality  is 2.36D-15 for    882    228.
 Iteration    1 A^-1*A deviation from unit magnitude is 3.66D-15 for    974.
 Iteration    1 A^-1*A deviation from orthogonality  is 1.67D-15 for   1119    358.
 E= -309.008719581230    
 DIIS: error= 3.31D-03 at cycle   1 NSaved=   1.
 NSaved= 1 IEnMin= 1 EnMin= -309.008719581230     IErMin= 1 ErrMin= 3.31D-03
 ErrMax= 3.31D-03  0.00D+00 EMaxC= 1.00D-01 BMatC= 1.93D-03 BMatP= 1.93D-03
 IDIUse=3 WtCom= 9.67D-01 WtEn= 3.31D-02
 Coeff-Com:  0.100D+01
 Coeff-En:   0.100D+01
 Coeff:      0.100D+01
 Gap=     0.586 Goal=   None    Shift=    0.000
 GapD=    0.586 DampG=2.000 DampE=1.000 DampFc=2.0000 IDamp=-1.
 RMSDP=5.05D-04 MaxDP=2.09D-02              OVMax= 1.34D-02

 Cycle   2  Pass 1  IDiag  1:
 RMSU=  4.99D-04    CP:  1.01D+00
 E= -309.010902647964     Delta-E=       -0.002183066734 Rises=F Damp=F
 DIIS: error= 6.56D-04 at cycle   2 NSaved=   2.
 NSaved= 2 IEnMin= 2 EnMin= -309.010902647964     IErMin= 2 ErrMin= 6.56D-04
 ErrMax= 6.56D-04  0.00D+00 EMaxC= 1.00D-01 BMatC= 7.07D-05 BMatP= 1.93D-03
 IDIUse=3 WtCom= 9.93D-01 WtEn= 6.56D-03
 Coeff-Com:  0.757D-01 0.924D+00
 Coeff-En:   0.000D+00 0.100D+01
 Coeff:      0.752D-01 0.925D+00
 Gap=     0.251 Goal=   None    Shift=    0.000
 RMSDP=7.95D-05 MaxDP=1.61D-03 DE=-2.18D-03 OVMax= 3.13D-03

 Cycle   3  Pass 1  IDiag  1:
 RMSU=  7.83D-05    CP:  1.01D+00  9.74D-01
 E= -309.010895807333     Delta-E=        0.000006840631 Rises=F Damp=F
 DIIS: error= 8.86D-04 at cycle   3 NSaved=   3.
 NSaved= 3 IEnMin= 2 EnMin= -309.010902647964     IErMin= 2 ErrMin= 6.56D-04
 ErrMax= 8.86D-04  0.00D+00 EMaxC= 1.00D-01 BMatC= 7.85D-05 BMatP= 7.07D-05
 IDIUse=3 WtCom= 2.51D-01 WtEn= 7.49D-01
 Coeff-Com:  0.105D-01 0.515D+00 0.475D+00
 Coeff-En:   0.000D+00 0.523D+00 0.477D+00
 Coeff:      0.263D-02 0.521D+00 0.476D+00
 Gap=     0.251 Goal=   None    Shift=    0.000
 RMSDP=4.72D-05 MaxDP=1.51D-03 DE= 6.84D-06 OVMax= 1.77D-03

 Cycle   4  Pass 1  IDiag  1:
 RMSU=  2.71D-05    CP:  1.01D+00  1.01D+00  5.71D-01
 E= -309.010968329269     Delta-E=       -0.000072521936 Rises=F Damp=F
 DIIS: error= 1.13D-04 at cycle   4 NSaved=   4.
 NSaved= 4 IEnMin= 4 EnMin= -309.010968329269     IErMin= 4 ErrMin= 1.13D-04
 ErrMax= 1.13D-04  0.00D+00 EMaxC= 1.00D-01 BMatC= 1.90D-06 BMatP= 7.07D-05
 IDIUse=3 WtCom= 9.99D-01 WtEn= 1.13D-03
 Coeff-Com:  0.768D-05 0.162D+00 0.201D+00 0.637D+00
 Coeff-En:   0.000D+00 0.000D+00 0.000D+00 0.100D+01
 Coeff:      0.767D-05 0.162D+00 0.201D+00 0.637D+00
 Gap=     0.251 Goal=   None    Shift=    0.000
 RMSDP=8.98D-06 MaxDP=3.21D-04 DE=-7.25D-05 OVMax= 2.67D-04

 Cycle   5  Pass 1  IDiag  1:
 RMSU=  3.57D-06    CP:  1.01D+00  1.01D+00  5.72D-01  7.21D-01
 E= -309.010970095679     Delta-E=       -0.000001766411 Rises=F Damp=F
 DIIS: error= 2.04D-05 at cycle   5 NSaved=   5.
 NSaved= 5 IEnMin= 5 EnMin= -309.010970095679     IErMin= 5 ErrMin= 2.04D-05
 ErrMax= 2.04D-05  0.00D+00 EMaxC= 1.00D-01 BMatC= 5.24D-08 BMatP= 1.90D-06
 IDIUse=1 WtCom= 1.00D+00 WtEn= 0.00D+00
 Coeff-Com: -0.173D-03 0.600D-01 0.778D-01 0.276D+00 0.586D+00
 Coeff:     -0.173D-03 0.600D-01 0.778D-01 0.276D+00 0.586D+00
 Gap=     0.251 Goal=   None    Shift=    0.000
 RMSDP=2.59D-06 MaxDP=1.26D-04 DE=-1.77D-06 OVMax= 4.83D-05

 Cycle   6  Pass 1  IDiag  1:
 RMSU=  1.67D-06    CP:  1.01D+00  1.00D+00  5.73D-01  6.76D-01  8.20D-01
 E= -309.010970124328     Delta-E=       -0.000000028648 Rises=F Damp=F
 DIIS: error= 1.20D-05 at cycle   6 NSaved=   6.
 NSaved= 6 IEnMin= 6 EnMin= -309.010970124328     IErMin= 6 ErrMin= 1.20D-05
 ErrMax= 1.20D-05  0.00D+00 EMaxC= 1.00D-01 BMatC= 1.81D-08 BMatP= 5.24D-08
 IDIUse=1 WtCom= 1.00D+00 WtEn= 0.00D+00
 Coeff-Com: -0.908D-04 0.146D-01 0.200D-01 0.825D-01 0.381D+00 0.502D+00
 Coeff:     -0.908D-04 0.146D-01 0.200D-01 0.825D-01 0.381D+00 0.502D+00
 Gap=     0.251 Goal=   None    Shift=    0.000
 RMSDP=1.69D-06 MaxDP=8.65D-05 DE=-2.86D-08 OVMax= 2.05D-05

 Cycle   7  Pass 1  IDiag  1:
 RMSU=  3.64D-07    CP:  1.01D+00  1.00D+00  5.74D-01  7.11D-01  8.43D-01
                    CP:  4.35D-01
 E= -309.010970137147     Delta-E=       -0.000000012820 Rises=F Damp=F
 DIIS: error= 2.15D-06 at cycle   7 NSaved=   7.
 NSaved= 7 IEnMin= 7 EnMin= -309.010970137147     IErMin= 7 ErrMin= 2.15D-06
 ErrMax= 2.15D-06  0.00D+00 EMaxC= 1.00D-01 BMatC= 6.64D-10 BMatP= 1.81D-08
 IDIUse=1 WtCom= 1.00D+00 WtEn= 0.00D+00
 Coeff-Com: -0.348D-04 0.492D-02 0.715D-02 0.322D-01 0.184D+00 0.276D+00
 Coeff-Com:  0.496D+00
 Coeff:     -0.348D-04 0.492D-02 0.715D-02 0.322D-01 0.184D+00 0.276D+00
 Coeff:      0.496D+00
 Gap=     0.251 Goal=   None    Shift=    0.000
 RMSDP=2.40D-07 MaxDP=9.89D-06 DE=-1.28D-08 OVMax= 5.62D-06

 Cycle   8  Pass 1  IDiag  1:
 RMSU=  1.07D-07    CP:  1.01D+00  1.00D+00  5.74D-01  7.07D-01  8.42D-01
                    CP:  4.90D-01  6.83D-01
 E= -309.010970137613     Delta-E=       -0.000000000465 Rises=F Damp=F
 DIIS: error= 8.52D-07 at cycle   8 NSaved=   8.
 NSaved= 8 IEnMin= 8 EnMin= -309.010970137613     IErMin= 8 ErrMin= 8.52D-07
 ErrMax= 8.52D-07  0.00D+00 EMaxC= 1.00D-01 BMatC= 7.71D-11 BMatP= 6.64D-10
 IDIUse=1 WtCom= 1.00D+00 WtEn= 0.00D+00
 Coeff-Com: -0.812D-05 0.708D-03 0.114D-02 0.588D-02 0.434D-01 0.734D-01
 Coeff-Com:  0.288D+00 0.588D+00
 Coeff:     -0.812D-05 0.708D-03 0.114D-02 0.588D-02 0.434D-01 0.734D-01
 Coeff:      0.288D+00 0.588D+00
 Gap=     0.251 Goal=   None    Shift=    0.000
 RMSDP=4.41D-08 MaxDP=6.30D-07 DE=-4.65D-10 OVMax= 1.80D-06

 Cycle   9  Pass 1  IDiag  1:
 RMSU=  2.24D-08    CP:  1.01D+00  1.00D+00  5.74D-01  7.07D-01  8.45D-01
                    CP:  4.91D-01  7.33D-01  7.25D-01
 E= -309.010970137686     Delta-E=       -0.000000000073 Rises=F Damp=F
 DIIS: error= 5.10D-08 at cycle   9 NSaved=   9.
 NSaved= 9 IEnMin= 9 EnMin= -309.010970137686     IErMin= 9 ErrMin= 5.10D-08
 ErrMax= 5.10D-08  0.00D+00 EMaxC= 1.00D-01 BMatC= 3.62D-13 BMatP= 7.71D-11
 IDIUse=1 WtCom= 1.00D+00 WtEn= 0.00D+00
 Coeff-Com: -0.147D-05 0.956D-05 0.379D-04 0.378D-03 0.435D-02 0.875D-02
 Coeff-Com:  0.548D-01 0.142D+00 0.789D+00
 Coeff:     -0.147D-05 0.956D-05 0.379D-04 0.378D-03 0.435D-02 0.875D-02
 Coeff:      0.548D-01 0.142D+00 0.789D+00
 Gap=     0.251 Goal=   None    Shift=    0.000
 RMSDP=7.30D-09 MaxDP=2.75D-07 DE=-7.34D-11 OVMax= 1.58D-07

 Error on total polarization charges =  0.01111
 SCF Done:  E(RB-P86) =  -309.010970138     A.U. after    9 cycles
            NFock=  9  Conv=0.73D-08     -V/T= 2.0048
 KE= 3.075332973162D+02 PE=-1.209221766164D+03 EE= 3.495542733306D+02
 Leave Link  502 at Mon Feb 22 21:22:18 2021, MaxMem=   104857600 cpu:             162.0 elap:               5.2
 (Enter /sw/arch/RedHatEnterpriseServer7/EB_production/2019/software/Gaussian/g16.c01/l701.exe)
 ... and contract with generalized density number  0.
 Compute integral first derivatives.
 R6Disp: Adding Grimme-D3 dispersion energy 1st derivatives to the gradient.
 PrsmSu:  requested number of processors reduced to:  30 ShMem   1 Linda.
 D1PCM: PCM CHGder 1st derivatives, ID1Alg=3 FixD1E=F DoIter=F DoCFld=F I1PDM=0.
[...]
 Largest Abelian subgroup         C1      NOp   1
 Largest concise Abelian subgroup C1      NOp   1
                         Standard orientation:                         
 ---------------------------------------------------------------------
 Center     Atomic      Atomic             Coordinates (Angstroms)
 Number     Number       Type             X           Y           Z
 ---------------------------------------------------------------------
      1          8           0        3.058681    0.327213   -0.000001
      2          6           0        1.879566   -0.507721    0.000000
      3          6           0        0.655775    0.398730    0.000000
      4          6           0       -0.655775   -0.398730    0.000000
      5          6           0       -1.879566    0.507721    0.000000
      6          8           0       -3.058681   -0.327213   -0.000001
      7          1           0        3.835067   -0.259966    0.000003
      8          1           0        1.863833   -1.160412    0.894214
      9          1           0        1.863832   -1.160413   -0.894213
     10          1           0        0.699390    1.052916    0.887390
     11          1           0        0.699390    1.052916   -0.887389
     12          1           0       -0.699390   -1.052916    0.887390
     13          1           0       -0.699390   -1.052916   -0.887390
     14          1           0       -1.863833    1.160412    0.894214
     15          1           0       -1.863832    1.160413   -0.894213
     16          1           0       -3.835066    0.259966    0.000002
 ---------------------------------------------------------------------
 Rotational constants (GHZ):          17.0048829           1.1317445           1.0904189
 Standard basis: TZVP (5D, 7F)
 There are   180 symmetry adapted cartesian basis functions of A   symmetry.
 There are   174 symmetry adapted basis functions of A   symmetry.
   174 basis functions,   290 primitive gaussians,   180 cartesian basis functions
    25 alpha electrons       25 beta electrons
       nuclear repulsion energy       243.0078258704 Hartrees.
 NAtoms=   16 NActive=   16 NUniq=   16 SFac= 1.00D+00 NAtFMM=   60 NAOKFM=F Big=F
 Integral buffers will be    131072 words long.
 Raffenetti 2 integral format.
 Two-electron integral symmetry is turned on.
 Warning! Using old PCM defaults because the COSMOthermo output has been requested.
 These settings can be overridden by following keywords.
 ------------------------------------------------------------------------------
 Polarizable Continuum Model (PCM)
 =================================
 Model                : C-PCM.
 Atomic radii         : Klamt.
 XCosmo               : -1.000 (infinite dielectric limit)
 Polarization charges : Electronic and nuclear charges.
 Charge compensation  : Type 3 (Electronic density weighted correction).
 Solution method      : On-the-fly selection.
 Cavity type          : VdW (van der Waals Surface) (Alpha=1.000).
 Cavity algorithm     : GePol (No added spheres)
                        Default sphere list used, NSphG=   16.
                        Tesserae with average area of 0.200 Ang**2.
                        Smoothing algorithm: None.
                        Polarization charges: point-like.
                        Self-potential: constant (ISelfS= 1).
                        Self-field    : global E.n sum rule (ISelfD= 3).
 Solvent              : Water, Eps=  78.355300 Eps(inf)=   1.777849
 ------------------------------------------------------------------------------
 Spheres list:
 ISph  on   Nord     Re0    Alpha      Xe            Ye            Ze
    1   O      1    1.7200  1.000      3.058681      0.327213     -0.000001
    2   C      2    2.0000  1.000      1.879566     -0.507721      0.000000
    3   C      3    2.0000  1.000      0.655775      0.398730      0.000000
    4   C      4    2.0000  1.000     -0.655775     -0.398730      0.000000
    5   C      5    2.0000  1.000     -1.879566      0.507721      0.000000
    6   O      6    1.7200  1.000     -3.058681     -0.327213     -0.000001
    7   H      7    1.3000  1.000      3.835067     -0.259966      0.000003
    8   H      8    1.3000  1.000      1.863833     -1.160412      0.894214
    9   H      9    1.3000  1.000      1.863832     -1.160413     -0.894213
   10   H     10    1.3000  1.000      0.699390      1.052916      0.887390
   11   H     11    1.3000  1.000      0.699390      1.052916     -0.887389
   12   H     12    1.3000  1.000     -0.699390     -1.052916      0.887390
   13   H     13    1.3000  1.000     -0.699390     -1.052916     -0.887390
   14   H     14    1.3000  1.000     -1.863833      1.160412      0.894214
   15   H     15    1.3000  1.000     -1.863832      1.160413     -0.894213
   16   H     16    1.3000  1.000     -3.835066      0.259966      0.000002
 ------------------------------------------------------------------------------
 One-electron integrals computed using PRISM.
 PrsmSu:  requested number of processors reduced to:  29 ShMem   1 Linda.
 NBasis=   174 RedAO= T EigKep=  2.04D-04  NBF=   174
 NBsUse=   174 1.00D-06 EigRej= -1.00D+00 NBFU=   174
 Initial guess from the checkpoint file:  "WERYXYBDKMZEQL-UHFFFAOYSA-N.chk"
 B after Tr=    -0.000000    0.000000    0.000000
         Rot=    1.000000   -0.000000    0.000000   -0.000000 Ang=   0.00 deg.
 Requested convergence on RMS density matrix=1.00D-08 within 128 cycles.
 Requested convergence on MAX density matrix=1.00D-06.
 Requested convergence on             energy=1.00D-06.
 No special actions if energy rises.
 Inv3:  Mode=1 IEnd=     3415467.
 Iteration    1 A*A^-1 deviation from unit magnitude is 3.55D-15 for    741.
 Iteration    1 A*A^-1 deviation from orthogonality  is 1.78D-15 for    793    679.
 Iteration    1 A^-1*A deviation from unit magnitude is 3.33D-15 for    195.
 Iteration    1 A^-1*A deviation from orthogonality  is 1.44D-15 for    919    861.
 Error on nuclear    polarization charges =  0.01150
 Error on electronic polarization charges = -0.04092
 SCF Done:  E(RB-P86) =  -309.006292646     A.U. after    9 cycles
            NFock=  9  Conv=0.49D-08     -V/T= 2.0048
 --------------------------------------------------------------------
 Variational C-PCM results
 =========================
 <psi(f)|   H    |psi(f)>                     (a.u.) =    -308.986728
 <psi(f)|H+V(f)/2|psi(f)>                     (a.u.) =    -309.006293
 Total free energy in solution:
 - with all non electrostatic terms           (a.u.) =    -308.996638
 --------------------------------------------------------------------
 (Polarized solute)-Solvent               (kcal/mol) =     -12.28
 --------------------------------------------------------------------
 Cavitation energy                        (kcal/mol) =      18.82
 Dispersion energy                        (kcal/mol) =     -14.03
 Repulsion energy                         (kcal/mol) =       1.27
 Total non electrostatic                  (kcal/mol) =       6.06
 --------------------------------------------------------------------
 Partition over spheres:
 Sphere  on Atom  Surface  Charge   GEl     GCav    GDR
    1      O1      16.29   0.208   -3.43    2.02   -1.46
    2      C2      12.18  -0.005   -0.25    1.43   -0.59
    3      C3       8.71   0.010   -0.11    1.02   -0.32
    4      C4       8.71   0.010   -0.10    1.02   -0.32
    5      C5      12.18  -0.005   -0.25    1.43   -0.59
    6      O6      16.29   0.208   -3.43    2.02   -1.46
    7      H7       8.57  -0.122   -1.92    1.21   -0.94
    8      H8       6.62  -0.025   -0.17    0.93   -0.79
    9      H9       6.62  -0.025   -0.17    0.93   -0.79
   10      H10      6.57  -0.020   -0.05    0.93   -0.75
   11      H11      6.57  -0.020   -0.05    0.93   -0.75
   12      H12      6.57  -0.020   -0.05    0.93   -0.75
   13      H13      6.57  -0.020   -0.05    0.93   -0.75
   14      H14      6.62  -0.025   -0.17    0.93   -0.79
   15      H15      6.62  -0.025   -0.17    0.93   -0.79
   16      H16      8.57  -0.122   -1.92    1.21   -0.94
 --------------------------------------------------------------------
 - cavitation energy not included in the total energy.
 - dispersion energy not included in the total energy.
 - repulsion  energy not included in the total energy.
 After PCM corrections, the energy is  -309.006292646     a.u.
 --------------------------------------------------------------------
 Writing COSMO formatted file "WERYXYBDKMZEQL-UHFFFAOYSA-N.cosmo"
 Recomputed dielectric energy= -0.019653 old= -0.019565 diff=-8.85D-05

 **********************************************************************

            Population analysis using the SCF Density.

 **********************************************************************

 Orbital symmetries:
       Occupied  (A) (A) (A) (A) (A) (A) (A) (A) (A) (A) (A) (A)
                 (A) (A) (A) (A) (A) (A) (A) (A) (A) (A) (A) (A)
                 (A)
       Virtual   (A) (A) (A) (A) (A) (A) (A) (A) (A) (A) (A) (A)
                 (A) (A) (A) (A) (A) (A) (A) (A) (A) (A) (A) (A)
                 (A) (A) (A) (A) (A) (A) (A) (A) (A) (A) (A) (A)
                 (A) (A) (A) (A) (A) (A) (A) (A) (A) (A) (A) (A)
                 (A) (A) (A) (A) (A) (A) (A) (A) (A) (A) (A) (A)
                 (A) (A) (A) (A) (A) (A) (A) (A) (A) (A) (A) (A)
                 (A) (A) (A) (A) (A) (A) (A) (A) (A) (A) (A) (A)
                 (A) (A) (A) (A) (A) (A) (A) (A) (A) (A) (A) (A)
                 (A) (A) (A) (A) (A) (A) (A) (A) (A) (A) (A) (A)
                 (A) (A) (A) (A) (A) (A) (A) (A) (A) (A) (A) (A)
                 (A) (A) (A) (A) (A) (A) (A) (A) (A) (A) (A) (A)
                 (A) (A) (A) (A) (A) (A) (A) (A) (A) (A) (A) (A)
                 (A) (A) (A) (A) (A)
 The electronic state is 1-A.
 Alpha  occ. eigenvalues --  -18.76954 -18.76953  -9.93863  -9.93862  -9.89371
 Alpha  occ. eigenvalues --   -9.89361  -0.93176  -0.93142  -0.72261  -0.64740
 Alpha  occ. eigenvalues --   -0.55826  -0.52412  -0.46511  -0.44900  -0.43715
 Alpha  occ. eigenvalues --   -0.40041  -0.38325  -0.33918  -0.33846  -0.31954
 Alpha  occ. eigenvalues --   -0.29947  -0.29169  -0.28523  -0.23443  -0.23090
 Alpha virt. eigenvalues --    0.02410   0.02639   0.03516   0.06263   0.06299
 Alpha virt. eigenvalues --    0.08922   0.10076   0.11769   0.12035   0.12396
 Alpha virt. eigenvalues --    0.12571   0.14104   0.16390   0.18658   0.18775
 Alpha virt. eigenvalues --    0.20707   0.24000   0.25640   0.25857   0.26953
 Alpha virt. eigenvalues --    0.28440   0.31613   0.33351   0.34580   0.34875
 Alpha virt. eigenvalues --    0.36352   0.37790   0.38412   0.38840   0.39975
 Alpha virt. eigenvalues --    0.42246   0.42321   0.43254   0.44090   0.44421
 Alpha virt. eigenvalues --    0.45935   0.46929   0.48852   0.51430   0.53589
 Alpha virt. eigenvalues --    0.54263   0.54567   0.56554   0.59273   0.60621
 Alpha virt. eigenvalues --    0.67467   0.70235   0.82141   0.87663   1.07841
 Alpha virt. eigenvalues --    1.08513   1.18113   1.18495   1.22439   1.22520
 Alpha virt. eigenvalues --    1.22912   1.23819   1.25097   1.27145   1.27584
 Alpha virt. eigenvalues --    1.30367   1.31347   1.35247   1.35765   1.36007
 Alpha virt. eigenvalues --    1.36905   1.37888   1.39945   1.43963   1.44614
 Alpha virt. eigenvalues --    1.51150   1.55684   1.59884   1.60431   1.64029
 Alpha virt. eigenvalues --    1.64761   1.65654   1.68991   1.71725   1.71735
 Alpha virt. eigenvalues --    1.73584   1.75601   1.77279   1.79182   1.82014
 Alpha virt. eigenvalues --    1.83862   1.84202   1.84889   1.92850   1.93756
 Alpha virt. eigenvalues --    2.01899   2.01966   2.02210   2.05793   2.09163
 Alpha virt. eigenvalues --    2.13848   2.18262   2.18674   2.28837   2.29056
 Alpha virt. eigenvalues --    2.30453   2.35225   2.43124   2.44373   2.44769
 Alpha virt. eigenvalues --    2.44858   2.45530   2.49620   2.50828   2.52259
 Alpha virt. eigenvalues --    2.53300   2.57609   2.59856   2.60482   2.60903
 Alpha virt. eigenvalues --    2.61687   2.62398   2.64571   2.71177   2.84238
 Alpha virt. eigenvalues --    2.84703   2.85268   2.85308   2.85756   2.93954
 Alpha virt. eigenvalues --    2.94168   3.00361   3.03865   3.07249   3.07847
 Alpha virt. eigenvalues --    3.12302   3.18779   3.23765   3.25641   3.29431
 Alpha virt. eigenvalues --    3.29863   3.31369   3.33255   3.39602   3.85266
 Alpha virt. eigenvalues --    3.85704   4.17555   4.17920  21.62254  21.66843
 Alpha virt. eigenvalues --   21.76891  21.81805  43.06187  43.11974
          Condensed to atoms (all electrons):
               1          2          3          4          5          6
     1  O    8.015863   0.314878  -0.125577   0.013028  -0.000421   0.000001
     2  C    0.314878   5.042615   0.043422   0.069036  -0.008547  -0.000421
     3  C   -0.125577   0.043422   5.762820  -0.148170   0.069038   0.013029
     4  C    0.013028   0.069036  -0.148170   5.762841   0.043384  -0.125591
     5  C   -0.000421  -0.008547   0.069038   0.043384   5.042671   0.314897
     6  O    0.000001  -0.000421   0.013029  -0.125591   0.314897   8.015855
     7  H    0.301801  -0.039487   0.018134  -0.001837   0.000076  -0.000000
     8  H   -0.053229   0.412525  -0.052993   0.002066  -0.000895   0.000011
     9  H   -0.053227   0.412500  -0.052946   0.002049  -0.000894   0.000011
    10  H    0.013500  -0.027761   0.365973  -0.016424  -0.010847  -0.000316
    11  H    0.013505  -0.027750   0.365906  -0.016395  -0.010851  -0.000316
    12  H   -0.000316  -0.010850  -0.016412   0.365910  -0.027730   0.013502
    13  H   -0.000316  -0.010850  -0.016412   0.365959  -0.027767   0.013505
    14  H    0.000011  -0.000893   0.002050  -0.052933   0.412469  -0.053228
    15  H    0.000011  -0.000895   0.002065  -0.053010   0.412556  -0.053232
    16  H   -0.000000   0.000076  -0.001837   0.018136  -0.039491   0.301798
               7          8          9         10         11         12
     1  O    0.301801  -0.053229  -0.053227   0.013500   0.013505  -0.000316
     2  C   -0.039487   0.412525   0.412500  -0.027761  -0.027750  -0.010850
     3  C    0.018134  -0.052993  -0.052946   0.365973   0.365906  -0.016412
     4  C   -0.001837   0.002066   0.002049  -0.016424  -0.016395   0.365910
     5  C    0.000076  -0.000895  -0.000894  -0.010847  -0.010851  -0.027730
     6  O   -0.000000   0.000011   0.000011  -0.000316  -0.000316   0.013502
     7  H    0.416183  -0.003206  -0.003205  -0.000574  -0.000574   0.000014
     8  H   -0.003206   0.634524  -0.070716  -0.018346   0.013996   0.008382
     9  H   -0.003205  -0.070716   0.634530   0.013994  -0.018350  -0.002316
    10  H   -0.000574  -0.018346   0.013994   0.590585  -0.046235  -0.011126
    11  H   -0.000574   0.013996  -0.018350  -0.046235   0.590624   0.010298
    12  H    0.000014   0.008382  -0.002316  -0.011126   0.010298   0.590624
    13  H    0.000014  -0.002316   0.008386   0.010297  -0.011129  -0.046232
    14  H   -0.000001   0.000142  -0.000028   0.008384  -0.002316  -0.018351
    15  H   -0.000001  -0.000028   0.000142  -0.002315   0.008383   0.013996
    16  H    0.000000  -0.000001  -0.000001   0.000014   0.000014  -0.000574
              13         14         15         16
     1  O   -0.000316   0.000011   0.000011  -0.000000
     2  C   -0.010850  -0.000893  -0.000895   0.000076
     3  C   -0.016412   0.002050   0.002065  -0.001837
     4  C    0.365959  -0.052933  -0.053010   0.018136
     5  C   -0.027767   0.412469   0.412556  -0.039491
     6  O    0.013505  -0.053228  -0.053232   0.301798
     7  H    0.000014  -0.000001  -0.000001   0.000000
     8  H   -0.002316   0.000142  -0.000028  -0.000001
     9  H    0.008386  -0.000028   0.000142  -0.000001
    10  H    0.010297   0.008384  -0.002315   0.000014
    11  H   -0.011129  -0.002316   0.008383   0.000014
    12  H   -0.046232  -0.018351   0.013996  -0.000574
    13  H    0.590589   0.013995  -0.018344  -0.000575
    14  H    0.013995   0.634550  -0.070715  -0.003206
    15  H   -0.018344  -0.070715   0.634500  -0.003205
    16  H   -0.000575  -0.003206  -0.003205   0.416184
 Mulliken charges:
               1
     1  O   -0.439511
     2  C   -0.167598
     3  C   -0.228090
     4  C   -0.228049
     5  C   -0.167651
     6  O   -0.439504
     7  H    0.312662
     8  H    0.130083
     9  H    0.130069
    10  H    0.131196
    11  H    0.131189
    12  H    0.131181
    13  H    0.131195
    14  H    0.130070
    15  H    0.130091
    16  H    0.312666
 Sum of Mulliken charges =  -0.00000
 Mulliken charges with hydrogens summed into heavy atoms:
               1
     1  O   -0.126849
     2  C    0.092554
     3  C    0.034295
     4  C    0.034327
     5  C    0.092511
     6  O   -0.126838
 Electronic spatial extent (au):  <R**2>=           1030.9997
 Charge=             -0.0000 electrons
 Dipole moment (field-independent basis, Debye):
    X=             -0.0000    Y=             -0.0001    Z=             -0.0004  Tot=              0.0004
 Quadrupole moment (field-independent basis, Debye-Ang):
   XX=            -32.8019   YY=            -39.6900   ZZ=            -38.8513
   XY=            -13.8123   XZ=              0.0010   YZ=              0.0002
 Traceless Quadrupole moment (field-independent basis, Debye-Ang):
   XX=              4.3125   YY=             -2.5756   ZZ=             -1.7369
   XY=            -13.8123   XZ=              0.0010   YZ=              0.0002
 Octapole moment (field-independent basis, Debye-Ang**2):
  XXX=             -0.0002  YYY=             -0.0001  ZZZ=             -0.0006  XYY=             -0.0001
  XXY=             -0.0005  XXZ=             -0.0024  XZZ=              0.0001  YZZ=             -0.0000
  YYZ=             -0.0003  XYZ=              0.0002
 Hexadecapole moment (field-independent basis, Debye-Ang**3):
 XXXX=           -756.1975 YYYY=           -124.6623 ZZZZ=            -68.4150 XXXY=           -146.2894
 XXXZ=              0.0128 YYYX=             -3.7933 YYYZ=              0.0003 ZZZX=              0.0014
 ZZZY=              0.0004 XXYY=           -209.2378 XXZZ=           -200.6719 YYZZ=            -29.0093
 XXYZ=              0.0022 YYXZ=              0.0010 ZZXY=             -3.2480
 N-N= 2.430078258704D+02 E-N=-1.209023352729D+03  KE= 3.075246588571D+02
 Unable to Open any file for archive entry.
 1\1\GINC-TCN1656\SP\RBP86\TZVP\C4H10O2\ELENAA\22-Feb-2021\0\\# BP86/TZ
 VP SCRF=COSMORS geom=CHECKPOINT guess=CHECKPOINT\\COSMO-file for #WERY
 XYBDKMZEQL-UHFFFAOYSA-N\\0,1\O,0,-3.4327747292,0.3529625217,-0.1760057
 852\C,0,-2.2102785873,0.3461164992,0.5939846191\C,0,-1.8079166173,1.79
 08017328,0.8591401952\C,0,-0.5122548861,1.8906582949,1.6760838287\C,0,
 -0.1098930685,3.3353434895,1.9412394296\O,0,1.1126020889,3.3284973738,
 2.7112320883\H,0,-3.6821138154,-0.5734819109,-0.3405771567\H,0,-1.4038
 666717,-0.1731591381,0.0408809842\H,0,-2.3570308795,-0.1854236222,1.55
 40886113\H,0,-1.6847896588,2.3075149392,-0.1079013042\H,0,-2.630681642
 3,2.2953443036,1.3937585516\H,0,0.3105100817,1.3861156253,1.1414656431
 \H,0,-0.6353819855,1.3739451333,2.6431254461\H,0,0.0368610692,3.866883
 333,0.981135643\H,0,-0.9163053968,3.8546194737,2.4943417899\H,0,1.3619
 446985,4.2549419513,2.8757974162\\Version=ES64L-G16RevC.01\State=1-A\H
 F=-309.0062926\RMSD=4.934e-09\Dipole=-0.0000632,-0.000023,0.00014\Quad
 rupole=-6.2278188,9.4255822,-3.1977634,4.9602769,-3.0685572,3.2116712\
 PG=C01 [X(C4H10O2)]\\@
 The archive entry for this job was punched.


 IT IS A CAPITAL MISTAKE TO THEORIZE BEFORE ONE HAS
 DATA.  INSENSIBLY ONE BEGINS TO TWIST FACTS TO SUIT
 THEORIES RATHER THAN THEORIES TO SUIT FACTS.

                                         -- SHERLOCK HOLMES
 Job cpu time:       0 days  0 hours  2 minutes 59.6 seconds.
 Elapsed time:       0 days  0 hours  0 minutes  6.1 seconds.
 File lengths (MBytes):  RWF=     32 Int=      0 D2E=      0 Chk=      6 Scr=      1
 Normal termination of Gaussian 16 at Mon Feb 22 21:22:46 2021.
