 Entering Gaussian System, Link 0=g16
 Input=WHUUTDBJXJRKMK-GSVOUGTGSA-N.gjf
 Output=WHUUTDBJXJRKMK-GSVOUGTGSA-N.log
 Initial command:
 /sw/arch/RedHatEnterpriseServer7/EB_production/2019/software/Gaussian/g16.c01/l1.exe "/scratch-local/elenaa.9715286/Gau-3416.inp" -scrdir="/scratch-local/elenaa.9715286/"
 Entering Link 1 = /sw/arch/RedHatEnterpriseServer7/EB_production/2019/software/Gaussian/g16.c01/l1.exe PID=      3417.
  
 Copyright (c) 1988-2019, Gaussian, Inc.  All Rights Reserved.
  
 This is part of the Gaussian(R) 16 program.  It is based on
 the Gaussian(R) 09 system (copyright 2009, Gaussian, Inc.),
 the Gaussian(R) 03 system (copyright 2003, Gaussian, Inc.),
 the Gaussian(R) 98 system (copyright 1998, Gaussian, Inc.),
 the Gaussian(R) 94 system (copyright 1995, Gaussian, Inc.),
 the Gaussian 92(TM) system (copyright 1992, Gaussian, Inc.),
 the Gaussian 90(TM) system (copyright 1990, Gaussian, Inc.),
 the Gaussian 88(TM) system (copyright 1988, Gaussian, Inc.),
 the Gaussian 86(TM) system (copyright 1986, Carnegie Mellon
 University), and the Gaussian 82(TM) system (copyright 1983,
 Carnegie Mellon University). Gaussian is a federally registered
 trademark of Gaussian, Inc.
  
 This software contains proprietary and confidential information,
 including trade secrets, belonging to Gaussian, Inc.
  
 This software is provided under written license and may be
 used, copied, transmitted, or stored only in accord with that
 written license.
  
 The following legend is applicable only to US Government
 contracts under FAR:
  
                    RESTRICTED RIGHTS LEGEND
  
 Use, reproduction and disclosure by the US Government is
 subject to restrictions as set forth in subparagraphs (a)
 and (c) of the Commercial Computer Software - Restricted
 Rights clause in FAR 52.227-19.
  
 Gaussian, Inc.
 340 Quinnipiac St., Bldg. 40, Wallingford CT 06492
  
  
 ---------------------------------------------------------------
 Warning -- This program may not be used in any manner that
 competes with the business of Gaussian, Inc. or will provide
 assistance to any competitor of Gaussian, Inc.  The licensee
 of this program is prohibited from giving any competitor of
 Gaussian, Inc. access to this program.  By using this program,
 the user acknowledges that Gaussian, Inc. is engaged in the
 business of creating and licensing software in the field of
 computational chemistry and represents and warrants to the
 licensee that it is not a competitor of Gaussian, Inc. and that
 it will not use this program in any manner prohibited above.
 ---------------------------------------------------------------
  

 Cite this work as:
 Gaussian 16, Revision C.01,
 M. J. Frisch, G. W. Trucks, H. B. Schlegel, G. E. Scuseria, 
 M. A. Robb, J. R. Cheeseman, G. Scalmani, V. Barone, 
 G. A. Petersson, H. Nakatsuji, X. Li, M. Caricato, A. V. Marenich, 
 J. Bloino, B. G. Janesko, R. Gomperts, B. Mennucci, H. P. Hratchian, 
 J. V. Ortiz, A. F. Izmaylov, J. L. Sonnenberg, D. Williams-Young, 
 F. Ding, F. Lipparini, F. Egidi, J. Goings, B. Peng, A. Petrone, 
 T. Henderson, D. Ranasinghe, V. G. Zakrzewski, J. Gao, N. Rega, 
 G. Zheng, W. Liang, M. Hada, M. Ehara, K. Toyota, R. Fukuda, 
 J. Hasegawa, M. Ishida, T. Nakajima, Y. Honda, O. Kitao, H. Nakai, 
 T. Vreven, K. Throssell, J. A. Montgomery, Jr., J. E. Peralta, 
 F. Ogliaro, M. J. Bearpark, J. J. Heyd, E. N. Brothers, K. N. Kudin, 
 V. N. Staroverov, T. A. Keith, R. Kobayashi, J. Normand, 
 K. Raghavachari, A. P. Rendell, J. C. Burant, S. S. Iyengar, 
 J. Tomasi, M. Cossi, J. M. Millam, M. Klene, C. Adamo, R. Cammi, 
 J. W. Ochterski, R. L. Martin, K. Morokuma, O. Farkas, 
 J. B. Foresman, and D. J. Fox, Gaussian, Inc., Wallingford CT, 2019.
 
 ******************************************
 Gaussian 16:  ES64L-G16RevC.01  3-Jul-2019
                22-Feb-2021 
 ******************************************
 %chk=WHUUTDBJXJRKMK-GSVOUGTGSA-N.chk
 %NProcShared=32
 Will use up to   32 processors via shared memory.
 -------------------------------------------------------------
 #P BP86/TZVP EmpiricalDispersion=GD3 SCRF=(Solvent=Water) Opt
 -------------------------------------------------------------
 1/18=20,19=15,26=3,38=1/1,3;
 2/9=110,12=2,17=6,18=5,40=1/2;
 3/5=19,7=101,11=2,25=1,30=1,70=2201,71=1,72=1,74=404,124=31/1,2,3;
 4//1;
 5/5=2,38=5,53=1/2;
 6/7=2,8=2,9=2,10=2,28=1/1;
 7//1,2,3,16;
 1/18=20,19=15,26=3/3(2);
 2/9=110/2;
 99//99;
 2/9=110/2;
 3/5=19,7=101,11=2,25=1,30=1,70=2205,71=1,72=1,74=404,124=31/1,2,3;
 4/5=5,16=3,69=1/1;
 5/5=2,38=5,53=1/2;
 7//1,2,3,16;
 1/18=20,19=15,26=3/3(-5);
 2/9=110/2;
 6/7=2,8=2,9=2,10=2,19=2,28=1/1;
 99/9=1/99;
 Leave Link    1 at Mon Feb 22 21:22:18 2021, MaxMem=           0 cpu:               1.4 elap:               0.1
 (Enter /sw/arch/RedHatEnterpriseServer7/EB_production/2019/software/Gaussian/g16.c01/l101.exe)
 -------------------------------------
 Particle #WHUUTDBJXJRKMK-GSVOUGTGSA-N
 -------------------------------------
 Symbolic Z-matrix:
 Charge =  0 Multiplicity = 1
 N                    -2.29797   0.31766  -1.4768 
 C                    -1.91101  -1.08482  -1.68676 
 C                    -0.36488  -1.25653  -1.7376 
 C                     0.35858  -0.81093  -0.43638 
 C                     1.82544  -0.95276  -0.52785 
 O                     2.34948  -2.08195  -0.66089 
 O                     2.63145   0.13311  -0.44885 
 C                    -2.55686  -1.56944  -2.92425 
 O                    -2.31583  -1.04233  -4.03408 
 O                    -3.43462  -2.59653  -2.88315 
 H                    -1.91067   0.6495   -0.59085 
 H                    -1.93936   0.89606  -2.24031 
 H                    -3.31816   0.39049  -1.4431 
 H                    -2.29878  -1.65996  -0.84195 
 H                    -0.13854  -2.31308  -1.91912 
 H                     0.03333  -0.68211  -2.5784 
 H                     0.00253  -1.412     0.40391 
 H                     0.12259   0.23448  -0.22753 
 H                     3.60516   0.02788  -0.50173 
 
 ITRead=  0  0  0  0  0  0  0  0  0  0  0  0  0  0  0  0  0  0  0
 MicOpt= -1 -1 -1 -1 -1 -1 -1 -1 -1 -1 -1 -1 -1 -1 -1 -1 -1 -1 -1
 NAtoms=     19 NQM=       19 NQMF=       0 NMMI=      0 NMMIF=      0
                NMic=       0 NMicF=      0.
                    Isotopes and Nuclear Properties:
 (Nuclear quadrupole moments (NQMom) in fm**2, nuclear magnetic moments (NMagM)
  in nuclear magnetons)

  Atom         1           2           3           4           5           6           7           8           9          10
 IAtWgt=          14          12          12          12          12          16          16          12          16          16
 AtmWgt=  14.0030740  12.0000000  12.0000000  12.0000000  12.0000000  15.9949146  15.9949146  12.0000000  15.9949146  15.9949146
 NucSpn=           2           0           0           0           0           0           0           0           0           0
 AtZEff=  -0.0000000  -0.0000000  -0.0000000  -0.0000000  -0.0000000  -0.0000000  -0.0000000  -0.0000000  -0.0000000  -0.0000000
 NQMom=    2.0440000   0.0000000   0.0000000   0.0000000   0.0000000   0.0000000   0.0000000   0.0000000   0.0000000   0.0000000
 NMagM=    0.4037610   0.0000000   0.0000000   0.0000000   0.0000000   0.0000000   0.0000000   0.0000000   0.0000000   0.0000000
 AtZNuc=   7.0000000   6.0000000   6.0000000   6.0000000   6.0000000   8.0000000   8.0000000   6.0000000   8.0000000   8.0000000

  Atom        11          12          13          14          15          16          17          18          19
 IAtWgt=           1           1           1           1           1           1           1           1           1
 AtmWgt=   1.0078250   1.0078250   1.0078250   1.0078250   1.0078250   1.0078250   1.0078250   1.0078250   1.0078250
 NucSpn=           1           1           1           1           1           1           1           1           1
 AtZEff=  -0.0000000  -0.0000000  -0.0000000  -0.0000000  -0.0000000  -0.0000000  -0.0000000  -0.0000000  -0.0000000
 NQMom=    0.0000000   0.0000000   0.0000000   0.0000000   0.0000000   0.0000000   0.0000000   0.0000000   0.0000000
 NMagM=    2.7928460   2.7928460   2.7928460   2.7928460   2.7928460   2.7928460   2.7928460   2.7928460   2.7928460
 AtZNuc=   1.0000000   1.0000000   1.0000000   1.0000000   1.0000000   1.0000000   1.0000000   1.0000000   1.0000000
 Leave Link  101 at Mon Feb 22 21:22:18 2021, MaxMem=   104857600 cpu:               2.7 elap:               0.1
 (Enter /sw/arch/RedHatEnterpriseServer7/EB_production/2019/software/Gaussian/g16.c01/l103.exe)

 GradGradGradGradGradGradGradGradGradGradGradGradGradGradGradGradGradGrad
 Berny optimization.
 Initialization pass.
                           ----------------------------
                           !    Initial Parameters    !
                           ! (Angstroms and Degrees)  !
 --------------------------                            --------------------------
 ! Name  Definition              Value          Derivative Info.                !
 --------------------------------------------------------------------------------
 ! R1    R(1,2)                  1.47           estimate D2E/DX2                !
 ! R2    R(1,11)                 1.0223         estimate D2E/DX2                !
 ! R3    R(1,12)                 1.0228         estimate D2E/DX2                !
 ! R4    R(1,13)                 1.0233         estimate D2E/DX2                !
 ! R5    R(2,3)                  1.5565         estimate D2E/DX2                !
 ! R6    R(2,8)                  1.4776         estimate D2E/DX2                !
 ! R7    R(2,14)                 1.0931         estimate D2E/DX2                !
 ! R8    R(3,4)                  1.5541         estimate D2E/DX2                !
 ! R9    R(3,15)                 1.0957         estimate D2E/DX2                !
 ! R10   R(3,16)                 1.0934         estimate D2E/DX2                !
 ! R11   R(4,5)                  1.4765         estimate D2E/DX2                !
 ! R12   R(4,17)                 1.0928         estimate D2E/DX2                !
 ! R13   R(4,18)                 1.0919         estimate D2E/DX2                !
 ! R14   R(5,6)                  1.252          estimate D2E/DX2                !
 ! R15   R(5,7)                  1.3546         estimate D2E/DX2                !
 ! R16   R(7,19)                 0.9808         estimate D2E/DX2                !
 ! R17   R(8,9)                  1.2521         estimate D2E/DX2                !
 ! R18   R(8,10)                 1.3517         estimate D2E/DX2                !
 ! A1    A(2,1,11)             109.4974         estimate D2E/DX2                !
 ! A2    A(2,1,12)             109.9152         estimate D2E/DX2                !
 ! A3    A(2,1,13)             109.575          estimate D2E/DX2                !
 ! A4    A(11,1,12)            109.3019         estimate D2E/DX2                !
 ! A5    A(11,1,13)            109.0295         estimate D2E/DX2                !
 ! A6    A(12,1,13)            109.5042         estimate D2E/DX2                !
 ! A7    A(1,2,3)              111.8032         estimate D2E/DX2                !
 ! A8    A(1,2,8)              108.5105         estimate D2E/DX2                !
 ! A9    A(1,2,14)             107.3513         estimate D2E/DX2                !
 ! A10   A(3,2,8)              111.7556         estimate D2E/DX2                !
 ! A11   A(3,2,14)             108.638          estimate D2E/DX2                !
 ! A12   A(8,2,14)             108.6413         estimate D2E/DX2                !
 ! A13   A(2,3,4)              113.7943         estimate D2E/DX2                !
 ! A14   A(2,3,15)             108.4816         estimate D2E/DX2                !
 ! A15   A(2,3,16)             109.2046         estimate D2E/DX2                !
 ! A16   A(4,3,15)             108.6052         estimate D2E/DX2                !
 ! A17   A(4,3,16)             108.8865         estimate D2E/DX2                !
 ! A18   A(15,3,16)            107.6963         estimate D2E/DX2                !
 ! A19   A(3,4,5)              112.5236         estimate D2E/DX2                !
 ! A20   A(3,4,17)             109.5392         estimate D2E/DX2                !
 ! A21   A(3,4,18)             109.516          estimate D2E/DX2                !
 ! A22   A(5,4,17)             108.5716         estimate D2E/DX2                !
 ! A23   A(5,4,18)             108.5743         estimate D2E/DX2                !
 ! A24   A(17,4,18)            108.0069         estimate D2E/DX2                !
 ! A25   A(4,5,6)              120.6009         estimate D2E/DX2                !
 ! A26   A(4,5,7)              120.6968         estimate D2E/DX2                !
 ! A27   A(6,5,7)              118.6945         estimate D2E/DX2                !
 ! A28   A(5,7,19)             120.1029         estimate D2E/DX2                !
 ! A29   A(2,8,9)              121.3412         estimate D2E/DX2                !
 ! A30   A(2,8,10)             120.503          estimate D2E/DX2                !
 ! A31   A(9,8,10)             118.1548         estimate D2E/DX2                !
 ! D1    D(11,1,2,3)           -60.107          estimate D2E/DX2                !
 ! D2    D(11,1,2,8)           176.1881         estimate D2E/DX2                !
 ! D3    D(11,1,2,14)           58.9456         estimate D2E/DX2                !
 ! D4    D(12,1,2,3)            59.9747         estimate D2E/DX2                !
 ! D5    D(12,1,2,8)           -63.7302         estimate D2E/DX2                !
 ! D6    D(12,1,2,14)          179.0273         estimate D2E/DX2                !
 ! D7    D(13,1,2,3)          -179.6457         estimate D2E/DX2                !
 ! D8    D(13,1,2,8)            56.6494         estimate D2E/DX2                !
 ! D9    D(13,1,2,14)          -60.5932         estimate D2E/DX2                !
 ! D10   D(1,2,3,4)             60.3348         estimate D2E/DX2                !
 ! D11   D(1,2,3,15)          -178.6664         estimate D2E/DX2                !
 ! D12   D(1,2,3,16)           -61.5491         estimate D2E/DX2                !
 ! D13   D(8,2,3,4)           -177.8079         estimate D2E/DX2                !
 ! D14   D(8,2,3,15)           -56.8091         estimate D2E/DX2                !
 ! D15   D(8,2,3,16)            60.3081         estimate D2E/DX2                !
 ! D16   D(14,2,3,4)           -57.9534         estimate D2E/DX2                !
 ! D17   D(14,2,3,15)           63.0454         estimate D2E/DX2                !
 ! D18   D(14,2,3,16)         -179.8373         estimate D2E/DX2                !
 ! D19   D(1,2,8,9)             61.253          estimate D2E/DX2                !
 ! D20   D(1,2,8,10)          -118.3953         estimate D2E/DX2                !
 ! D21   D(3,2,8,9)            -62.4804         estimate D2E/DX2                !
 ! D22   D(3,2,8,10)           117.8712         estimate D2E/DX2                !
 ! D23   D(14,2,8,9)           177.667          estimate D2E/DX2                !
 ! D24   D(14,2,8,10)           -1.9814         estimate D2E/DX2                !
 ! D25   D(2,3,4,5)           -178.513          estimate D2E/DX2                !
 ! D26   D(2,3,4,17)            60.6213         estimate D2E/DX2                !
 ! D27   D(2,3,4,18)           -57.6599         estimate D2E/DX2                !
 ! D28   D(15,3,4,5)            60.5573         estimate D2E/DX2                !
 ! D29   D(15,3,4,17)          -60.3084         estimate D2E/DX2                !
 ! D30   D(15,3,4,18)         -178.5896         estimate D2E/DX2                !
 ! D31   D(16,3,4,5)           -56.4531         estimate D2E/DX2                !
 ! D32   D(16,3,4,17)         -177.3188         estimate D2E/DX2                !
 ! D33   D(16,3,4,18)           64.4            estimate D2E/DX2                !
 ! D34   D(3,4,5,6)            -64.0647         estimate D2E/DX2                !
 ! D35   D(3,4,5,7)            116.9606         estimate D2E/DX2                !
 ! D36   D(17,4,5,6)            57.3542         estimate D2E/DX2                !
 ! D37   D(17,4,5,7)          -121.6205         estimate D2E/DX2                !
 ! D38   D(18,4,5,6)           174.5438         estimate D2E/DX2                !
 ! D39   D(18,4,5,7)            -4.4308         estimate D2E/DX2                !
 ! D40   D(4,5,7,19)           179.3921         estimate D2E/DX2                !
 ! D41   D(6,5,7,19)             0.3982         estimate D2E/DX2                !
 --------------------------------------------------------------------------------
 Trust Radius=3.00D-01 FncErr=1.00D-07 GrdErr=1.00D-06 EigMax=2.50D+02 EigMin=1.00D-04
 Number of steps in this run=    100 maximum allowed number of steps=    114.
 GradGradGradGradGradGradGradGradGradGradGradGradGradGradGradGradGradGrad

 Leave Link  103 at Mon Feb 22 21:22:18 2021, MaxMem=   104857600 cpu:               0.4 elap:               0.0
 (Enter /sw/arch/RedHatEnterpriseServer7/EB_production/2019/software/Gaussian/g16.c01/l202.exe)
                          Input orientation:                          
 ---------------------------------------------------------------------
 Center     Atomic      Atomic             Coordinates (Angstroms)
 Number     Number       Type             X           Y           Z
 ---------------------------------------------------------------------
      1          7           0       -2.297970    0.317660   -1.476800
      2          6           0       -1.911010   -1.084820   -1.686760
      3          6           0       -0.364880   -1.256530   -1.737600
      4          6           0        0.358580   -0.810930   -0.436380
      5          6           0        1.825440   -0.952760   -0.527850
      6          8           0        2.349480   -2.081950   -0.660890
      7          8           0        2.631450    0.133110   -0.448850
      8          6           0       -2.556860   -1.569440   -2.924250
      9          8           0       -2.315830   -1.042330   -4.034080
     10          8           0       -3.434620   -2.596530   -2.883150
     11          1           0       -1.910670    0.649500   -0.590850
     12          1           0       -1.939360    0.896060   -2.240310
     13          1           0       -3.318160    0.390490   -1.443100
     14          1           0       -2.298780   -1.659960   -0.841950
     15          1           0       -0.138540   -2.313080   -1.919120
     16          1           0        0.033330   -0.682110   -2.578400
     17          1           0        0.002530   -1.412000    0.403910
     18          1           0        0.122590    0.234480   -0.227530
     19          1           0        3.605160    0.027880   -0.501730
 ---------------------------------------------------------------------
                    Distance matrix (angstroms):
                    1          2          3          4          5
     1  N    0.000000
     2  C    1.469956   0.000000
     3  C    2.506577   1.556466   0.000000
     4  C    3.068134   2.605668   1.554068   0.000000
     5  C    4.417803   3.914278   2.520570   1.476537   0.000000
     6  O    5.293640   4.494269   3.034530   2.372673   1.251954
     7  O    5.038841   4.863098   3.545415   2.461159   1.354624
     8  C    2.392338   1.477620   2.512136   3.906997   5.032651
     9  O    2.896476   2.382351   3.020912   4.488815   5.426950
    10  O    3.429621   2.457235   3.539942   4.854216   5.993133
    11  H    1.022265   2.051557   2.708773   2.703001   4.065676
    12  H    1.022788   2.056965   2.713918   3.383564   4.530383
    13  H    1.023341   2.053285   3.394299   3.996913   5.394314
    14  H    2.077021   1.093094   2.169081   2.819025   4.196187
    15  H    3.432139   2.168931   1.095663   2.168433   2.764656
    16  H    2.765506   2.176616   1.093377   2.170399   2.736725
    17  H    3.438182   2.852995   2.178354   1.092769   2.098113
    18  H    2.725198   2.829388   2.177395   1.091875   2.097482
    19  H    5.990132   5.750698   4.351816   3.353827   2.032176
                    6          7          8          9         10
     6  O    0.000000
     7  O    2.242980   0.000000
     8  C    5.427489   5.995402   0.000000
     9  O    5.850157   6.221826   1.252064   0.000000
    10  O    6.217640   7.083358   1.351690   2.234249   0.000000
    11  H    5.061087   4.573585   3.284206   3.857755   4.256028
    12  H    5.455022   4.968272   2.632066   2.667714   3.853210
    13  H    6.232733   6.037602   2.571908   3.125830   3.318071
    14  H    4.670886   5.260874   2.100184   3.251377   2.516703
    15  H    2.797643   3.977233   2.722418   3.290662   3.445844
    16  H    3.316768   3.456847   2.759719   2.786990   3.972978
    17  H    2.662857   3.166352   4.201418   5.020678   4.901212
    18  H    3.242328   2.520642   4.207835   4.697442   5.265043
    19  H    2.460375   0.980806   6.811059   6.977175   7.881446
                   11         12         13         14         15
    11  H    0.000000
    12  H    1.668033   0.000000
    13  H    1.665666   1.670998   0.000000
    14  H    2.355268   2.935614   2.367459   0.000000
    15  H    3.698868   3.693873   4.200699   2.500699   0.000000
    16  H    3.082641   2.548810   3.697548   3.067603   1.767556
    17  H    2.983230   4.011231   4.205639   2.628627   2.495659
    18  H    2.106749   2.956452   3.652494   3.135195   3.069157
    19  H    5.551462   5.875211   6.996429   6.149883   4.637281
                   16         17         18         19
    16  H    0.000000
    17  H    3.070482   0.000000
    18  H    2.524816   1.767492   0.000000
    19  H    4.192209   3.984016   3.499452   0.000000
 Stoichiometry    C5H9NO4
 Framework group  C1[X(C5H9NO4)]
 Deg. of freedom    51
 Full point group                 C1      NOp   1
 Largest Abelian subgroup         C1      NOp   1
 Largest concise Abelian subgroup C1      NOp   1
                         Standard orientation:                         
 ---------------------------------------------------------------------
 Center     Atomic      Atomic             Coordinates (Angstroms)
 Number     Number       Type             X           Y           Z
 ---------------------------------------------------------------------
      1          7           0        1.339803    1.737050   -0.203779
      2          6           0        1.231996    0.294306   -0.463854
      3          6           0       -0.115040   -0.287616    0.055227
      4          6           0       -1.369367    0.353000   -0.601587
      5          6           0       -2.631050   -0.194220   -0.064124
      6          8           0       -2.923916   -1.400259   -0.228705
      7          8           0       -3.503665    0.602446    0.598352
      8          6           0        2.393529   -0.381252    0.150819
      9          8           0        2.596930   -0.332742    1.385298
     10          8           0        3.272769   -1.066097   -0.614027
     11          1           0        0.577200    2.226891   -0.676558
     12          1           0        1.283791    1.914917    0.801865
     13          1           0        2.232868    2.084394   -0.562966
     14          1           0        1.278970    0.153884   -1.546873
     15          1           0       -0.127776   -1.364921   -0.144093
     16          1           0       -0.173023   -0.149292    1.138269
     17          1           0       -1.346152    0.179186   -1.680194
     18          1           0       -1.358503    1.431762   -0.433227
     19          1           0       -4.343357    0.231735    0.943997
 ---------------------------------------------------------------------
 Rotational constants (GHZ):           2.7752092           0.5483181           0.5138369
 Leave Link  202 at Mon Feb 22 21:22:18 2021, MaxMem=   104857600 cpu:               0.7 elap:               0.1
 (Enter /sw/arch/RedHatEnterpriseServer7/EB_production/2019/software/Gaussian/g16.c01/l301.exe)
 Standard basis: TZVP (5D, 7F)
 Ernie: Thresh=  0.10000D-02 Tol=  0.10000D-05 Strict=F.
 There are   254 symmetry adapted cartesian basis functions of A   symmetry.
 There are   244 symmetry adapted basis functions of A   symmetry.
   244 basis functions,   422 primitive gaussians,   254 cartesian basis functions
    39 alpha electrons       39 beta electrons
       nuclear repulsion energy       533.0509400472 Hartrees.
 IExCor=  404 DFT=T Ex=B Corr=P86 ExCW=0 ScaHFX=  0.000000
 ScaDFX=  1.000000  1.000000  1.000000  1.000000 ScalE2=  1.000000  1.000000
 IRadAn=      5 IRanWt=     -1 IRanGd=            0 ICorTp=0 IEmpDi=131
 NAtoms=   19 NActive=   19 NUniq=   19 SFac= 1.00D+00 NAtFMM=   60 NAOKFM=F Big=F
 Integral buffers will be    131072 words long.
 Raffenetti 2 integral format.
 Two-electron integral symmetry is turned on.
 R6Disp:  Grimme-D3 Dispersion energy=       -0.0190910164 Hartrees.
 Nuclear repulsion after empirical dispersion term =      533.0318490308 Hartrees.
 ------------------------------------------------------------------------------
 Polarizable Continuum Model (PCM)
 =================================
 Model                : PCM.
 Atomic radii         : UFF (Universal Force Field).
 Polarization charges : Total charges.
 Charge compensation  : None.
 Solution method      : On-the-fly selection.
 Cavity type          : Scaled VdW (van der Waals Surface) (Alpha=1.100).
 Cavity algorithm     : GePol (No added spheres)
                        Default sphere list used, NSphG=   19.
                        Lebedev-Laikov grids with approx.  5.0 points / Ang**2.
                        Smoothing algorithm: York/Karplus (Gamma=1.0000).
                        Polarization charges: spherical gaussians, with
                                              point-specific exponents (IZeta= 3).
                        Self-potential: point-specific (ISelfS= 7).
                        Self-field    : sphere-specific E.n sum rule (ISelfD= 2).
 1st derivatives      : Analytical E(r).r(x)/FMM algorithm (CHGder, D1EAlg=3).
                        Cavity 1st derivative terms included.
 Solvent              : Water, Eps=  78.355300 Eps(inf)=   1.777849
 ------------------------------------------------------------------------------
 Spheres list:
 ISph  on   Nord     Re0    Alpha      Xe            Ye            Ze
    1   N      1    1.8300  1.100      1.339803      1.737050     -0.203779
    2   C      2    1.9255  1.100      1.231996      0.294306     -0.463854
    3   C      3    1.9255  1.100     -0.115040     -0.287616      0.055227
    4   C      4    1.9255  1.100     -1.369367      0.353000     -0.601587
    5   C      5    1.9255  1.100     -2.631050     -0.194220     -0.064124
    6   O      6    1.7500  1.100     -2.923916     -1.400259     -0.228705
    7   O      7    1.7500  1.100     -3.503665      0.602446      0.598352
    8   C      8    1.9255  1.100      2.393529     -0.381252      0.150819
    9   O      9    1.7500  1.100      2.596930     -0.332742      1.385298
   10   O     10    1.7500  1.100      3.272769     -1.066097     -0.614027
   11   H     11    1.4430  1.100      0.577200      2.226891     -0.676558
   12   H     12    1.4430  1.100      1.283791      1.914917      0.801865
   13   H     13    1.4430  1.100      2.232868      2.084394     -0.562966
   14   H     14    1.4430  1.100      1.278970      0.153884     -1.546873
   15   H     15    1.4430  1.100     -0.127776     -1.364921     -0.144093
   16   H     16    1.4430  1.100     -0.173023     -0.149292      1.138269
   17   H     17    1.4430  1.100     -1.346152      0.179186     -1.680194
   18   H     18    1.4430  1.100     -1.358503      1.431762     -0.433227
   19   H     19    1.4430  1.100     -4.343357      0.231735      0.943997
 ------------------------------------------------------------------------------
 GePol: Number of generator spheres                  =      19
 GePol: Total number of spheres                      =      19
 GePol: Number of exposed spheres                    =      19 (100.00%)
 GePol: Number of points                             =    1583
 GePol: Average weight of points                     =       0.14
 GePol: Minimum weight of points                     =   0.14D-08
 GePol: Maximum weight of points                     =    0.20577
 GePol: Number of points with low weight             =      73
 GePol: Fraction of low-weight points (<1% of avg)   =       4.61%
 GePol: Cavity surface area                          =    213.862 Ang**2
 GePol: Cavity volume                                =    207.193 Ang**3
 Leave Link  301 at Mon Feb 22 21:22:19 2021, MaxMem=   104857600 cpu:               2.2 elap:               0.1
 (Enter /sw/arch/RedHatEnterpriseServer7/EB_production/2019/software/Gaussian/g16.c01/l302.exe)
 NPDir=0 NMtPBC=     1 NCelOv=     1 NCel=       1 NClECP=     1 NCelD=      1
         NCelK=      1 NCelE2=     1 NClLst=     1 CellRange=     0.0.
 One-electron integrals computed using PRISM.
 One-electron integral symmetry used in STVInt
 PrsmSu:  requested number of processors reduced to:  28 ShMem   1 Linda.
 NBasis=   244 RedAO= T EigKep=  1.35D-04  NBF=   244
 NBsUse=   244 1.00D-06 EigRej= -1.00D+00 NBFU=   244
 Precomputing XC quadrature grid using
 IXCGrd= 4 IRadAn=           5 IRanWt=          -1 IRanGd=           0 AccXCQ= 0.00D+00.
 Generated NRdTot=       0 NPtTot=           0 NUsed=           0 NTot=          32
 NSgBfM=   252   252   252   252   252 MxSgAt=    19 MxSgA2=    19.
 Leave Link  302 at Mon Feb 22 21:22:19 2021, MaxMem=   104857600 cpu:               6.5 elap:               0.2
 (Enter /sw/arch/RedHatEnterpriseServer7/EB_production/2019/software/Gaussian/g16.c01/l303.exe)
 DipDrv:  MaxL=1.
 Leave Link  303 at Mon Feb 22 21:22:19 2021, MaxMem=   104857600 cpu:               2.6 elap:               0.1
 (Enter /sw/arch/RedHatEnterpriseServer7/EB_production/2019/software/Gaussian/g16.c01/l401.exe)
 ExpMin= 9.52D-02 ExpMax= 2.70D+04 ExpMxC= 9.22D+02 IAcc=3 IRadAn=         5 AccDes= 0.00D+00
 Harris functional with IExCor=  404 and IRadAn=       5 diagonalized for initial guess.
 HarFok:  IExCor=  404 AccDes= 0.00D+00 IRadAn=         5 IDoV= 1 UseB2=F ITyADJ=14
 ICtDFT=  3500011 ScaDFX=  1.000000  1.000000  1.000000  1.000000
 FoFCou: FMM=F IPFlag=           0 FMFlag=      100000 FMFlg1=           0
         NFxFlg=           0 DoJE=T BraDBF=F KetDBF=T FulRan=T
         wScrn=  0.000000 ICntrl=       500 IOpCl=  0 I1Cent=   200000004 NGrid=           0
         NMat0=    1 NMatS0=      1 NMatT0=    0 NMatD0=    1 NMtDS0=    0 NMtDT0=    0
 Petite list used in FoFCou.
 Harris En= -552.011456105750    
 JPrj=0 DoOrth=F DoCkMO=F.
 Leave Link  401 at Mon Feb 22 21:22:20 2021, MaxMem=   104857600 cpu:              11.7 elap:               0.4
 (Enter /sw/arch/RedHatEnterpriseServer7/EB_production/2019/software/Gaussian/g16.c01/l502.exe)
 Integral symmetry usage will be decided dynamically.
 Closed shell SCF:
 Using DIIS extrapolation, IDIIS=  1040.
 NGot=   104857600 LenX=   104717354 LenY=   104652397
 Requested convergence on RMS density matrix=1.00D-08 within 128 cycles.
 Requested convergence on MAX density matrix=1.00D-06.
 Requested convergence on             energy=1.00D-06.
 No special actions if energy rises.
 Fock matrices will be formed incrementally for  20 cycles.

 Cycle   1  Pass 1  IDiag  1:
 FoFJK:  IHMeth= 1 ICntrl=     500 DoSepK=F KAlg= 0 I1Cent=           0 FoldK=F
 IRaf= 890000000 NMat=       1 IRICut=       1 DoRegI=T DoRafI=F ISym2E= 0 IDoP0=0 IntGTp=1.
 FoFCou: FMM=F IPFlag=           0 FMFlag=      100000 FMFlg1=           0
         NFxFlg=           0 DoJE=T BraDBF=F KetDBF=F FulRan=T
         wScrn=  0.000000 ICntrl=       500 IOpCl=  0 I1Cent=           0 NGrid=           0
         NMat0=    1 NMatS0=      1 NMatT0=    0 NMatD0=    1 NMtDS0=    0 NMtDT0=    0
 Symmetry not used in FoFCou.
 Inv3:  Mode=1 IEnd=     7517667.
 Iteration    1 A*A^-1 deviation from unit magnitude is 3.00D-15 for   1015.
 Iteration    1 A*A^-1 deviation from orthogonality  is 1.89D-15 for   1347    384.
 Iteration    1 A^-1*A deviation from unit magnitude is 3.00D-15 for   1100.
 Iteration    1 A^-1*A deviation from orthogonality  is 2.66D-15 for   1427    935.
 E= -551.517590760278    
 DIIS: error= 3.40D-02 at cycle   1 NSaved=   1.
 NSaved= 1 IEnMin= 1 EnMin= -551.517590760278     IErMin= 1 ErrMin= 3.40D-02
 ErrMax= 3.40D-02  0.00D+00 EMaxC= 1.00D-01 BMatC= 4.18D-01 BMatP= 4.18D-01
 IDIUse=3 WtCom= 6.60D-01 WtEn= 3.40D-01
 Coeff-Com:  0.100D+01
 Coeff-En:   0.100D+01
 Coeff:      0.100D+01
 Gap=    -0.034 Goal=   None    Shift=    0.000
 GapD=   -0.034 DampG=0.250 DampE=0.500 DampFc=0.2500 IDamp=-1.
 Damping current iteration by 2.50D-01
 RMSDP=2.86D-02 MaxDP=2.64D+00              OVMax= 7.19D-01

 Cycle   2  Pass 1  IDiag  1:
 RMSU=  7.13D-03    CP:  1.03D+00
 E= -551.592764795772     Delta-E=       -0.075174035493 Rises=F Damp=T
 DIIS: error= 7.41D-03 at cycle   2 NSaved=   2.
 NSaved= 2 IEnMin= 2 EnMin= -551.592764795772     IErMin= 2 ErrMin= 7.41D-03
 ErrMax= 7.41D-03  0.00D+00 EMaxC= 1.00D-01 BMatC= 4.04D-02 BMatP= 4.18D-01
 IDIUse=3 WtCom= 9.26D-01 WtEn= 7.41D-02
 Coeff-Com: -0.136D+00 0.114D+01
 Coeff-En:   0.285D+00 0.715D+00
 Coeff:     -0.105D+00 0.110D+01
 Gap=     0.039 Goal=   None    Shift=    0.000
 RMSDP=5.72D-03 MaxDP=4.41D-01 DE=-7.52D-02 OVMax= 5.68D-01

 Cycle   3  Pass 1  IDiag  1:
 RMSU=  2.97D-03    CP:  1.01D+00  3.17D-01
 E= -551.736030416734     Delta-E=       -0.143265620962 Rises=F Damp=F
 DIIS: error= 2.16D-02 at cycle   3 NSaved=   3.
 NSaved= 3 IEnMin= 3 EnMin= -551.736030416734     IErMin= 2 ErrMin= 7.41D-03
 ErrMax= 2.16D-02  0.00D+00 EMaxC= 1.00D-01 BMatC= 1.34D-01 BMatP= 4.04D-02
 IDIUse=2 WtCom= 0.00D+00 WtEn= 1.00D+00
 EnCoef did   100 forward-backward iterations
 Coeff-En:   0.689D-01 0.307D-02 0.928D+00
 Coeff:      0.689D-01 0.307D-02 0.928D+00
 Gap=     0.115 Goal=   None    Shift=    0.000
 RMSDP=1.62D-02 MaxDP=1.38D+00 DE=-1.43D-01 OVMax= 9.32D-01

 Cycle   4  Pass 1  IDiag  1:
 RMSU=  1.43D-02    CP:  1.05D+00  1.28D+00  8.51D-03
 E= -549.014416868209     Delta-E=        2.721613548525 Rises=F Damp=F
 DIIS: error= 9.39D-02 at cycle   4 NSaved=   4.
 NSaved= 4 IEnMin= 3 EnMin= -551.736030416734     IErMin= 2 ErrMin= 7.41D-03
 ErrMax= 9.39D-02  0.00D+00 EMaxC= 1.00D-01 BMatC= 2.01D+00 BMatP= 4.04D-02
 IDIUse=2 WtCom= 0.00D+00 WtEn= 1.00D+00
 EnCoef did     1 forward-backward iterations
 Coeff-En:   0.190D-01 0.000D+00 0.911D+00 0.704D-01
 Coeff:      0.190D-01 0.000D+00 0.911D+00 0.704D-01
 Gap=    -0.063 Goal=   None    Shift=    0.000
 RMSDP=1.38D-02 MaxDP=1.08D+00 DE= 2.72D+00 OVMax= 9.65D-01

 Cycle   5  Pass 1  IDiag  1:
 RMSU=  5.20D-03    CP:  1.07D+00  1.00D+00  7.14D-01  1.28D-01
 E= -551.482407386137     Delta-E=       -2.467990517929 Rises=F Damp=F
 DIIS: error= 3.78D-02 at cycle   5 NSaved=   5.
 NSaved= 5 IEnMin= 3 EnMin= -551.736030416734     IErMin= 2 ErrMin= 7.41D-03
 ErrMax= 3.78D-02  0.00D+00 EMaxC= 1.00D-01 BMatC= 4.62D-01 BMatP= 4.04D-02
 IDIUse=2 WtCom= 0.00D+00 WtEn= 1.00D+00
 Coeff-En:   0.000D+00 0.000D+00 0.699D+00 0.000D+00 0.301D+00
 Coeff:      0.000D+00 0.000D+00 0.699D+00 0.000D+00 0.301D+00
 Gap=     0.076 Goal=   None    Shift=    0.000
 RMSDP=3.74D-03 MaxDP=3.73D-01 DE=-2.47D+00 OVMax= 1.89D-01

 Cycle   6  Pass 1  IDiag  1:
 RMSU=  1.35D-03    CP:  1.04D+00  6.85D-01  7.88D-01  5.73D-02  5.30D-01
 E= -551.823750990823     Delta-E=       -0.341343604686 Rises=F Damp=F
 DIIS: error= 8.38D-03 at cycle   6 NSaved=   6.
 NSaved= 6 IEnMin= 6 EnMin= -551.823750990823     IErMin= 2 ErrMin= 7.41D-03
 ErrMax= 8.38D-03  0.00D+00 EMaxC= 1.00D-01 BMatC= 3.10D-02 BMatP= 4.04D-02
 IDIUse=3 WtCom= 9.16D-01 WtEn= 8.38D-02
 Coeff-Com: -0.230D-01 0.135D+00 0.409D+00-0.102D-01 0.155D+00 0.334D+00
 Coeff-En:   0.000D+00 0.000D+00 0.209D+00 0.000D+00 0.000D+00 0.791D+00
 Coeff:     -0.211D-01 0.124D+00 0.393D+00-0.939D-02 0.142D+00 0.372D+00
 Gap=     0.115 Goal=   None    Shift=    0.000
 RMSDP=1.91D-03 MaxDP=2.23D-01 DE=-3.41D-01 OVMax= 4.95D-02

 Cycle   7  Pass 1  IDiag  1:
 RMSU=  4.30D-04    CP:  1.03D+00  5.07D-01  8.47D-01  3.19D-02  3.33D-01
                    CP:  4.32D-01
 E= -551.846574164773     Delta-E=       -0.022823173950 Rises=F Damp=F
 DIIS: error= 4.01D-03 at cycle   7 NSaved=   7.
 NSaved= 7 IEnMin= 7 EnMin= -551.846574164773     IErMin= 7 ErrMin= 4.01D-03
 ErrMax= 4.01D-03  0.00D+00 EMaxC= 1.00D-01 BMatC= 2.38D-03 BMatP= 3.10D-02
 IDIUse=3 WtCom= 9.60D-01 WtEn= 4.01D-02
 Coeff-Com: -0.114D-01 0.346D-01 0.192D+00-0.483D-02 0.522D-01 0.271D+00
 Coeff-Com:  0.467D+00
 Coeff-En:   0.000D+00 0.000D+00 0.000D+00 0.000D+00 0.000D+00 0.000D+00
 Coeff-En:   0.100D+01
 Coeff:     -0.110D-01 0.333D-01 0.184D+00-0.464D-02 0.501D-01 0.260D+00
 Coeff:      0.489D+00
 Gap=     0.115 Goal=   None    Shift=    0.000
 RMSDP=3.39D-04 MaxDP=3.22D-02 DE=-2.28D-02 OVMax= 2.15D-02

 Cycle   8  Pass 1  IDiag  1:
 RMSU=  1.67D-04    CP:  1.03D+00  5.30D-01  8.44D-01  3.60D-02  3.63D-01
                    CP:  4.94D-01  6.55D-01
 E= -551.847850082041     Delta-E=       -0.001275917268 Rises=F Damp=F
 DIIS: error= 1.61D-03 at cycle   8 NSaved=   8.
 NSaved= 8 IEnMin= 8 EnMin= -551.847850082041     IErMin= 8 ErrMin= 1.61D-03
 ErrMax= 1.61D-03  0.00D+00 EMaxC= 1.00D-01 BMatC= 6.81D-04 BMatP= 2.38D-03
 IDIUse=3 WtCom= 9.84D-01 WtEn= 1.61D-02
 Coeff-Com: -0.588D-02 0.146D-01 0.402D-01-0.254D-02-0.325D-02 0.913D-01
 Coeff-Com:  0.380D+00 0.486D+00
 Coeff-En:   0.000D+00 0.000D+00 0.000D+00 0.000D+00 0.000D+00 0.000D+00
 Coeff-En:   0.277D+00 0.723D+00
 Coeff:     -0.579D-02 0.144D-01 0.396D-01-0.249D-02-0.319D-02 0.899D-01
 Coeff:      0.378D+00 0.490D+00
 Gap=     0.114 Goal=   None    Shift=    0.000
 RMSDP=1.30D-04 MaxDP=7.82D-03 DE=-1.28D-03 OVMax= 9.81D-03

 Cycle   9  Pass 1  IDiag  1:
 RMSU=  4.20D-05    CP:  1.03D+00  5.26D-01  8.53D-01  3.40D-02  3.50D-01
                    CP:  5.03D-01  7.65D-01  5.66D-01
 E= -551.848352159671     Delta-E=       -0.000502077630 Rises=F Damp=F
 DIIS: error= 4.38D-04 at cycle   9 NSaved=   9.
 NSaved= 9 IEnMin= 9 EnMin= -551.848352159671     IErMin= 9 ErrMin= 4.38D-04
 ErrMax= 4.38D-04  0.00D+00 EMaxC= 1.00D-01 BMatC= 5.09D-05 BMatP= 6.81D-04
 IDIUse=3 WtCom= 9.96D-01 WtEn= 4.38D-03
 Coeff-Com:  0.619D-03-0.160D-02 0.134D-01-0.103D-03-0.558D-02 0.339D-01
 Coeff-Com:  0.210D+00 0.294D+00 0.456D+00
 Coeff-En:   0.000D+00 0.000D+00 0.000D+00 0.000D+00 0.000D+00 0.000D+00
 Coeff-En:   0.000D+00 0.000D+00 0.100D+01
 Coeff:      0.616D-03-0.159D-02 0.134D-01-0.103D-03-0.555D-02 0.337D-01
 Coeff:      0.209D+00 0.292D+00 0.458D+00
 Gap=     0.114 Goal=   None    Shift=    0.000
 RMSDP=3.76D-05 MaxDP=1.90D-03 DE=-5.02D-04 OVMax= 1.68D-03

 Cycle  10  Pass 1  IDiag  1:
 RMSU=  2.18D-05    CP:  1.03D+00  5.23D-01  8.50D-01  3.38D-02  3.50D-01
                    CP:  4.97D-01  7.65D-01  5.86D-01  5.24D-01
 E= -551.848387432156     Delta-E=       -0.000035272485 Rises=F Damp=F
 DIIS: error= 1.43D-04 at cycle  10 NSaved=  10.
 NSaved=10 IEnMin=10 EnMin= -551.848387432156     IErMin=10 ErrMin= 1.43D-04
 ErrMax= 1.43D-04  0.00D+00 EMaxC= 1.00D-01 BMatC= 4.33D-06 BMatP= 5.09D-05
 IDIUse=3 WtCom= 9.99D-01 WtEn= 1.43D-03
 Coeff-Com:  0.109D-02-0.173D-02 0.661D-02 0.786D-04-0.313D-02 0.151D-01
 Coeff-Com:  0.986D-01 0.131D+00 0.288D+00 0.464D+00
 Coeff-En:   0.000D+00 0.000D+00 0.000D+00 0.000D+00 0.000D+00 0.000D+00
 Coeff-En:   0.000D+00 0.000D+00 0.000D+00 0.100D+01
 Coeff:      0.109D-02-0.172D-02 0.660D-02 0.785D-04-0.312D-02 0.151D-01
 Coeff:      0.985D-01 0.131D+00 0.288D+00 0.465D+00
 Gap=     0.114 Goal=   None    Shift=    0.000
 RMSDP=1.50D-05 MaxDP=1.70D-03 DE=-3.53D-05 OVMax= 6.23D-04

 Cycle  11  Pass 1  IDiag  1:
 RMSU=  4.72D-06    CP:  1.03D+00  5.22D-01  8.50D-01  3.37D-02  3.48D-01
                    CP:  4.97D-01  7.69D-01  5.85D-01  5.72D-01  8.08D-01
 E= -551.848390610558     Delta-E=       -0.000003178402 Rises=F Damp=F
 DIIS: error= 3.76D-05 at cycle  11 NSaved=  11.
 NSaved=11 IEnMin=11 EnMin= -551.848390610558     IErMin=11 ErrMin= 3.76D-05
 ErrMax= 3.76D-05  0.00D+00 EMaxC= 1.00D-01 BMatC= 3.96D-07 BMatP= 4.33D-06
 IDIUse=1 WtCom= 1.00D+00 WtEn= 0.00D+00
 Coeff-Com:  0.693D-03-0.699D-03 0.115D-02 0.209D-04-0.755D-03 0.207D-02
 Coeff-Com:  0.114D-01 0.988D-02 0.663D-01 0.242D+00 0.668D+00
 Coeff:      0.693D-03-0.699D-03 0.115D-02 0.209D-04-0.755D-03 0.207D-02
 Coeff:      0.114D-01 0.988D-02 0.663D-01 0.242D+00 0.668D+00
 Gap=     0.114 Goal=   None    Shift=    0.000
 RMSDP=3.28D-06 MaxDP=1.98D-04 DE=-3.18D-06 OVMax= 1.73D-04

 Cycle  12  Pass 1  IDiag  1:
 RMSU=  1.51D-06    CP:  1.03D+00  5.22D-01  8.50D-01  3.37D-02  3.48D-01
                    CP:  4.97D-01  7.69D-01  5.80D-01  5.76D-01  8.52D-01
                    CP:  8.57D-01
 E= -551.848390925170     Delta-E=       -0.000000314612 Rises=F Damp=F
 DIIS: error= 8.80D-06 at cycle  12 NSaved=  12.
 NSaved=12 IEnMin=12 EnMin= -551.848390925170     IErMin=12 ErrMin= 8.80D-06
 ErrMax= 8.80D-06  0.00D+00 EMaxC= 1.00D-01 BMatC= 1.93D-08 BMatP= 3.96D-07
 IDIUse=1 WtCom= 1.00D+00 WtEn= 0.00D+00
 Coeff-Com:  0.367D-03-0.441D-03 0.407D-03 0.611D-07-0.238D-03 0.651D-03
 Coeff-Com:  0.294D-02 0.194D-02 0.217D-01 0.975D-01 0.332D+00 0.543D+00
 Coeff:      0.367D-03-0.441D-03 0.407D-03 0.611D-07-0.238D-03 0.651D-03
 Coeff:      0.294D-02 0.194D-02 0.217D-01 0.975D-01 0.332D+00 0.543D+00
 Gap=     0.114 Goal=   None    Shift=    0.000
 RMSDP=8.17D-07 MaxDP=6.91D-05 DE=-3.15D-07 OVMax= 2.64D-05

 Cycle  13  Pass 1  IDiag  1:
 RMSU=  5.04D-07    CP:  1.03D+00  5.22D-01  8.50D-01  3.37D-02  3.48D-01
                    CP:  4.98D-01  7.69D-01  5.80D-01  5.76D-01  8.67D-01
                    CP:  8.72D-01  8.50D-01
 E= -551.848390916983     Delta-E=        0.000000008188 Rises=F Damp=F
 DIIS: error= 3.36D-06 at cycle  13 NSaved=  13.
 NSaved=13 IEnMin=12 EnMin= -551.848390925170     IErMin=13 ErrMin= 3.36D-06
 ErrMax= 3.36D-06  0.00D+00 EMaxC= 1.00D-01 BMatC= 2.72D-09 BMatP= 1.93D-08
 IDIUse=1 WtCom= 1.00D+00 WtEn= 0.00D+00
 Coeff-Com:  0.101D-03-0.987D-04 0.725D-04-0.124D-07-0.255D-04-0.438D-04
 Coeff-Com:  0.166D-03 0.284D-03 0.211D-02 0.137D-01 0.674D-01 0.268D+00
 Coeff-Com:  0.648D+00
 Coeff:      0.101D-03-0.987D-04 0.725D-04-0.124D-07-0.255D-04-0.438D-04
 Coeff:      0.166D-03 0.284D-03 0.211D-02 0.137D-01 0.674D-01 0.268D+00
 Coeff:      0.648D+00
 Gap=     0.114 Goal=   None    Shift=    0.000
 RMSDP=7.51D-07 MaxDP=9.04D-05 DE= 8.19D-09 OVMax= 1.19D-05

 Cycle  14  Pass 1  IDiag  1:
 RMSU=  1.66D-07    CP:  1.03D+00  5.22D-01  8.50D-01  3.37D-02  3.48D-01
                    CP:  4.97D-01  7.69D-01  5.80D-01  5.75D-01  8.65D-01
                    CP:  8.75D-01  8.56D-01  8.31D-01
 E= -551.848390919340     Delta-E=       -0.000000002357 Rises=F Damp=F
 DIIS: error= 5.24D-07 at cycle  14 NSaved=  14.
 NSaved=14 IEnMin=12 EnMin= -551.848390925170     IErMin=14 ErrMin= 5.24D-07
 ErrMax= 5.24D-07  0.00D+00 EMaxC= 1.00D-01 BMatC= 9.92D-11 BMatP= 2.72D-09
 IDIUse=1 WtCom= 1.00D+00 WtEn= 0.00D+00
 Coeff-Com:  0.266D-04-0.278D-04 0.166D-04 0.417D-07 0.311D-06-0.411D-04
 Coeff-Com:  0.473D-04 0.166D-03 0.834D-04 0.250D-03 0.806D-02 0.712D-01
 Coeff-Com:  0.220D+00 0.700D+00
 Coeff:      0.266D-04-0.278D-04 0.166D-04 0.417D-07 0.311D-06-0.411D-04
 Coeff:      0.473D-04 0.166D-03 0.834D-04 0.250D-03 0.806D-02 0.712D-01
 Coeff:      0.220D+00 0.700D+00
 Gap=     0.114 Goal=   None    Shift=    0.000
 RMSDP=6.97D-08 MaxDP=4.77D-06 DE=-2.36D-09 OVMax= 1.95D-06

 Cycle  15  Pass 1  IDiag  1:
 RMSU=  3.31D-08    CP:  1.03D+00  5.22D-01  8.50D-01  3.36D-02  3.48D-01
                    CP:  4.97D-01  7.69D-01  5.80D-01  5.75D-01  8.66D-01
                    CP:  8.75D-01  8.67D-01  8.63D-01  8.94D-01
 E= -551.848390919409     Delta-E=       -0.000000000069 Rises=F Damp=F
 DIIS: error= 2.34D-07 at cycle  15 NSaved=  15.
 NSaved=15 IEnMin=12 EnMin= -551.848390925170     IErMin=15 ErrMin= 2.34D-07
 ErrMax= 2.34D-07  0.00D+00 EMaxC= 1.00D-01 BMatC= 2.49D-11 BMatP= 9.92D-11
 IDIUse=1 WtCom= 1.00D+00 WtEn= 0.00D+00
 Coeff-Com:  0.709D-05-0.688D-05 0.512D-05-0.682D-07 0.971D-06-0.177D-04
 Coeff-Com:  0.314D-04 0.904D-04-0.699D-04-0.118D-02-0.124D-02 0.181D-01
 Coeff-Com:  0.686D-01 0.422D+00 0.494D+00
 Coeff:      0.709D-05-0.688D-05 0.512D-05-0.682D-07 0.971D-06-0.177D-04
 Coeff:      0.314D-04 0.904D-04-0.699D-04-0.118D-02-0.124D-02 0.181D-01
 Coeff:      0.686D-01 0.422D+00 0.494D+00
 Gap=     0.114 Goal=   None    Shift=    0.000
 RMSDP=2.35D-08 MaxDP=1.93D-06 DE=-6.90D-11 OVMax= 8.50D-07

 Cycle  16  Pass 1  IDiag  1:
 RMSU=  1.14D-08    CP:  1.03D+00  5.22D-01  8.50D-01  3.36D-02  3.48D-01
                    CP:  4.97D-01  7.69D-01  5.80D-01  5.75D-01  8.65D-01
                    CP:  8.75D-01  8.70D-01  8.59D-01  9.15D-01  7.91D-01
 E= -551.848390919425     Delta-E=       -0.000000000016 Rises=F Damp=F
 DIIS: error= 7.38D-08 at cycle  16 NSaved=  16.
 NSaved=16 IEnMin=12 EnMin= -551.848390925170     IErMin=16 ErrMin= 7.38D-08
 ErrMax= 7.38D-08  0.00D+00 EMaxC= 1.00D-01 BMatC= 1.55D-12 BMatP= 2.49D-11
 IDIUse=1 WtCom= 1.00D+00 WtEn= 0.00D+00
 Coeff-Com:  0.888D-06-0.748D-06 0.210D-05-0.190D-07-0.448D-06 0.922D-06
 Coeff-Com:  0.167D-04 0.236D-04 0.818D-05-0.490D-03-0.876D-03 0.499D-03
 Coeff-Com:  0.362D-02 0.910D-01 0.186D+00 0.720D+00
 Coeff:      0.888D-06-0.748D-06 0.210D-05-0.190D-07-0.448D-06 0.922D-06
 Coeff:      0.167D-04 0.236D-04 0.818D-05-0.490D-03-0.876D-03 0.499D-03
 Coeff:      0.362D-02 0.910D-01 0.186D+00 0.720D+00
 Gap=     0.114 Goal=   None    Shift=    0.000
 RMSDP=1.21D-08 MaxDP=1.37D-06 DE=-1.65D-11 OVMax= 3.93D-07

 Cycle  17  Pass 1  IDiag  1:
 RMSU=  2.64D-09    CP:  1.03D+00  5.22D-01  8.50D-01  3.36D-02  3.48D-01
                    CP:  4.97D-01  7.69D-01  5.80D-01  5.75D-01  8.65D-01
                    CP:  8.75D-01  8.70D-01  8.62D-01  9.31D-01  7.96D-01
                    CP:  8.45D-01
 E= -551.848390919430     Delta-E=       -0.000000000005 Rises=F Damp=F
 DIIS: error= 1.22D-08 at cycle  17 NSaved=  17.
 NSaved=17 IEnMin=12 EnMin= -551.848390925170     IErMin=17 ErrMin= 1.22D-08
 ErrMax= 1.22D-08  0.00D+00 EMaxC= 1.00D-01 BMatC= 7.29D-14 BMatP= 1.55D-12
 IDIUse=1 WtCom= 1.00D+00 WtEn= 0.00D+00
 Coeff-Com:  0.223D-06-0.196D-06 0.103D-05-0.658D-08-0.290D-06 0.170D-05
 Coeff-Com:  0.749D-05 0.800D-05 0.690D-05-0.200D-03-0.347D-03-0.538D-03
 Coeff-Com: -0.141D-02 0.261D-01 0.720D-01 0.357D+00 0.548D+00
 Coeff:      0.223D-06-0.196D-06 0.103D-05-0.658D-08-0.290D-06 0.170D-05
 Coeff:      0.749D-05 0.800D-05 0.690D-05-0.200D-03-0.347D-03-0.538D-03
 Coeff:     -0.141D-02 0.261D-01 0.720D-01 0.357D+00 0.548D+00
 Gap=     0.114 Goal=   None    Shift=    0.000
 RMSDP=1.25D-09 MaxDP=5.72D-08 DE=-5.23D-12 OVMax= 4.33D-08

 Error on total polarization charges =  0.01066
 SCF Done:  E(RB-P86) =  -551.848390919     A.U. after   17 cycles
            NFock= 17  Conv=0.13D-08     -V/T= 2.0044
 KE= 5.494380463931D+02 PE=-2.359617888805D+03 EE= 7.252996024618D+02
 Leave Link  502 at Mon Feb 22 21:22:35 2021, MaxMem=   104857600 cpu:             484.1 elap:              15.4
 (Enter /sw/arch/RedHatEnterpriseServer7/EB_production/2019/software/Gaussian/g16.c01/l601.exe)
 Copying SCF densities to generalized density rwf, IOpCl= 0 IROHF=0.

 **********************************************************************

            Population analysis using the SCF Density.

 **********************************************************************

 Orbital symmetries:
       Occupied  (A) (A) (A) (A) (A) (A) (A) (A) (A) (A) (A) (A)
                 (A) (A) (A) (A) (A) (A) (A) (A) (A) (A) (A) (A)
                 (A) (A) (A) (A) (A) (A) (A) (A) (A) (A) (A) (A)
                 (A) (A) (A)
       Virtual   (A) (A) (A) (A) (A) (A) (A) (A) (A) (A) (A) (A)
                 (A) (A) (A) (A) (A) (A) (A) (A) (A) (A) (A) (A)
                 (A) (A) (A) (A) (A) (A) (A) (A) (A) (A) (A) (A)
                 (A) (A) (A) (A) (A) (A) (A) (A) (A) (A) (A) (A)
                 (A) (A) (A) (A) (A) (A) (A) (A) (A) (A) (A) (A)
                 (A) (A) (A) (A) (A) (A) (A) (A) (A) (A) (A) (A)
                 (A) (A) (A) (A) (A) (A) (A) (A) (A) (A) (A) (A)
                 (A) (A) (A) (A) (A) (A) (A) (A) (A) (A) (A) (A)
                 (A) (A) (A) (A) (A) (A) (A) (A) (A) (A) (A) (A)
                 (A) (A) (A) (A) (A) (A) (A) (A) (A) (A) (A) (A)
                 (A) (A) (A) (A) (A) (A) (A) (A) (A) (A) (A) (A)
                 (A) (A) (A) (A) (A) (A) (A) (A) (A) (A) (A) (A)
                 (A) (A) (A) (A) (A) (A) (A) (A) (A) (A) (A) (A)
                 (A) (A) (A) (A) (A) (A) (A) (A) (A) (A) (A) (A)
                 (A) (A) (A) (A) (A) (A) (A) (A) (A) (A) (A) (A)
                 (A) (A) (A) (A) (A) (A) (A) (A) (A) (A) (A) (A)
                 (A) (A) (A) (A) (A) (A) (A) (A) (A) (A) (A) (A)
                 (A)
 The electronic state is 1-A.
 Alpha  occ. eigenvalues --  -18.82830 -18.76559 -18.72407 -18.70724 -14.13872
 Alpha  occ. eigenvalues --  -10.04525  -9.98610  -9.97701  -9.93600  -9.93592
 Alpha  occ. eigenvalues --   -1.02270  -0.96309  -0.93078  -0.92969  -0.82830
 Alpha  occ. eigenvalues --   -0.75914  -0.70024  -0.62247  -0.57597  -0.56812
 Alpha  occ. eigenvalues --   -0.55220  -0.50311  -0.47217  -0.45765  -0.42987
 Alpha  occ. eigenvalues --   -0.42491  -0.41047  -0.38221  -0.38059  -0.35392
 Alpha  occ. eigenvalues --   -0.34570  -0.34093  -0.33361  -0.32582  -0.28920
 Alpha  occ. eigenvalues --   -0.24342  -0.22099  -0.21368  -0.18153
 Alpha virt. eigenvalues --   -0.06709  -0.03408  -0.00659   0.01313   0.03420
 Alpha virt. eigenvalues --    0.03780   0.05241   0.06365   0.07052   0.07849
 Alpha virt. eigenvalues --    0.09046   0.10136   0.12816   0.13662   0.14388
 Alpha virt. eigenvalues --    0.15718   0.16206   0.18755   0.19220   0.20159
 Alpha virt. eigenvalues --    0.21439   0.22378   0.23853   0.24457   0.25235
 Alpha virt. eigenvalues --    0.26839   0.28592   0.29505   0.30751   0.32678
 Alpha virt. eigenvalues --    0.33020   0.33336   0.35484   0.37203   0.37819
 Alpha virt. eigenvalues --    0.38144   0.38622   0.39051   0.40643   0.41361
 Alpha virt. eigenvalues --    0.41866   0.42803   0.43051   0.43508   0.43884
 Alpha virt. eigenvalues --    0.44658   0.45733   0.46016   0.47636   0.49853
 Alpha virt. eigenvalues --    0.50029   0.50443   0.52947   0.53278   0.53909
 Alpha virt. eigenvalues --    0.55384   0.56941   0.59376   0.59959   0.62164
 Alpha virt. eigenvalues --    0.64369   0.65602   0.68530   0.70596   0.75189
 Alpha virt. eigenvalues --    0.78555   0.80124   0.87947   0.92364   1.01864
 Alpha virt. eigenvalues --    1.06436   1.12586   1.13744   1.16922   1.20708
 Alpha virt. eigenvalues --    1.23440   1.24875   1.26167   1.28843   1.28920
 Alpha virt. eigenvalues --    1.30778   1.31844   1.33140   1.33461   1.35469
 Alpha virt. eigenvalues --    1.37585   1.39349   1.40495   1.41382   1.44143
 Alpha virt. eigenvalues --    1.45045   1.47042   1.48133   1.51601   1.52302
 Alpha virt. eigenvalues --    1.53071   1.54030   1.55762   1.56976   1.59113
 Alpha virt. eigenvalues --    1.60966   1.62925   1.64143   1.65284   1.68503
 Alpha virt. eigenvalues --    1.73140   1.74364   1.75977   1.77831   1.78519
 Alpha virt. eigenvalues --    1.80806   1.84871   1.85157   1.88391   1.90508
 Alpha virt. eigenvalues --    1.91321   1.92449   1.96301   1.98616   2.04240
 Alpha virt. eigenvalues --    2.05153   2.08029   2.11030   2.15026   2.16093
 Alpha virt. eigenvalues --    2.18305   2.20368   2.25104   2.25968   2.33075
 Alpha virt. eigenvalues --    2.35051   2.37748   2.40074   2.41900   2.44643
 Alpha virt. eigenvalues --    2.47378   2.49090   2.49404   2.50212   2.51057
 Alpha virt. eigenvalues --    2.51764   2.52738   2.53896   2.55367   2.55880
 Alpha virt. eigenvalues --    2.57368   2.57975   2.58407   2.59568   2.60350
 Alpha virt. eigenvalues --    2.60890   2.61723   2.62382   2.63801   2.64665
 Alpha virt. eigenvalues --    2.66247   2.67471   2.70317   2.70557   2.74218
 Alpha virt. eigenvalues --    2.75438   2.75806   2.77318   2.78890   2.80748
 Alpha virt. eigenvalues --    2.82374   2.87071   2.87959   2.93725   2.95319
 Alpha virt. eigenvalues --    2.97243   3.01230   3.01897   3.03736   3.06226
 Alpha virt. eigenvalues --    3.09162   3.10595   3.12265   3.17977   3.21283
 Alpha virt. eigenvalues --    3.26241   3.29980   3.31625   3.35743   3.36022
 Alpha virt. eigenvalues --    3.44131   3.47870   3.65592   3.76745   3.77519
 Alpha virt. eigenvalues --    3.83195   3.99212   3.99715   4.09001   4.17390
 Alpha virt. eigenvalues --   21.65183  21.70254  21.76232  21.78489  21.82262
 Alpha virt. eigenvalues --   31.34133  43.03294  43.10328  43.12545  43.22125
          Condensed to atoms (all electrons):
               1          2          3          4          5          6
     1  N    6.294879  -0.097778   0.020025  -0.003907   0.001161   0.000068
     2  C   -0.097778   6.881781  -0.223404   0.020229  -0.020068  -0.001183
     3  C    0.020025  -0.223404   5.880592   0.124776   0.002406  -0.008396
     4  C   -0.003907   0.020229   0.124776   5.613203   0.060333  -0.125707
     5  C    0.001161  -0.020068   0.002406   0.060333   4.818185   0.608075
     6  O    0.000068  -0.001183  -0.008396  -0.125707   0.608075   7.993463
     7  O    0.000071  -0.001201  -0.011058  -0.118695   0.367750  -0.123909
     8  C    0.033050  -0.313989  -0.008023  -0.010008  -0.001526  -0.000048
     9  O   -0.004073  -0.166307  -0.019653   0.000499  -0.000074  -0.000000
    10  O   -0.005035  -0.160552  -0.021355  -0.000979  -0.000034   0.000000
    11  H    0.360257  -0.010097  -0.021389   0.010880  -0.000828  -0.000006
    12  H    0.323169   0.008842  -0.023370  -0.001462  -0.000499   0.000005
    13  H    0.357478  -0.056751   0.013186  -0.000793   0.000113   0.000002
    14  H   -0.038729   0.338479  -0.032723  -0.013262   0.000943   0.000137
    15  H    0.011826  -0.050386   0.364722  -0.030834  -0.004034   0.014275
    16  H   -0.021272   0.031937   0.319749  -0.029871  -0.003136  -0.001005
    17  H   -0.004507   0.013730  -0.038830   0.408123  -0.025899  -0.006411
    18  H    0.012973  -0.036249  -0.026134   0.339319   0.012933   0.008287
    19  H    0.000001   0.000027  -0.000110   0.016323  -0.022852   0.001743
               7          8          9         10         11         12
     1  N    0.000071   0.033050  -0.004073  -0.005035   0.360257   0.323169
     2  C   -0.001201  -0.313989  -0.166307  -0.160552  -0.010097   0.008842
     3  C   -0.011058  -0.008023  -0.019653  -0.021355  -0.021389  -0.023370
     4  C   -0.118695  -0.010008   0.000499  -0.000979   0.010880  -0.001462
     5  C    0.367750  -0.001526  -0.000074  -0.000034  -0.000828  -0.000499
     6  O   -0.123909  -0.000048  -0.000000   0.000000  -0.000006   0.000005
     7  O    7.858566  -0.000004   0.000000   0.000000  -0.000052   0.000005
     8  C   -0.000004   5.094155   0.556275   0.580175  -0.001679  -0.004375
     9  O    0.000000   0.556275   8.160260  -0.172593  -0.000566   0.016883
    10  O    0.000000   0.580175  -0.172593   8.242261  -0.000853   0.001170
    11  H   -0.000052  -0.001679  -0.000566  -0.000853   0.366773  -0.011268
    12  H    0.000005  -0.004375   0.016883   0.001170  -0.011268   0.367579
    13  H    0.000000   0.017384   0.001463   0.002715  -0.011638  -0.011175
    14  H    0.000001  -0.000174   0.012695   0.027840  -0.006702   0.005492
    15  H    0.001698   0.020037  -0.002755   0.005339   0.000351   0.000402
    16  H    0.001212  -0.010720   0.020315   0.001943   0.000005   0.008662
    17  H   -0.000656  -0.002703  -0.000013  -0.000170   0.000338   0.000223
    18  H    0.015645   0.000463  -0.000028   0.000018   0.001850   0.000265
    19  H    0.291635   0.000004   0.000000   0.000000  -0.000002  -0.000001
              13         14         15         16         17         18
     1  N    0.357478  -0.038729   0.011826  -0.021272  -0.004507   0.012973
     2  C   -0.056751   0.338479  -0.050386   0.031937   0.013730  -0.036249
     3  C    0.013186  -0.032723   0.364722   0.319749  -0.038830  -0.026134
     4  C   -0.000793  -0.013262  -0.030834  -0.029871   0.408123   0.339319
     5  C    0.000113   0.000943  -0.004034  -0.003136  -0.025899   0.012933
     6  O    0.000002   0.000137   0.014275  -0.001005  -0.006411   0.008287
     7  O    0.000000   0.000001   0.001698   0.001212  -0.000656   0.015645
     8  C    0.017384  -0.000174   0.020037  -0.010720  -0.002703   0.000463
     9  O    0.001463   0.012695  -0.002755   0.020315  -0.000013  -0.000028
    10  O    0.002715   0.027840   0.005339   0.001943  -0.000170   0.000018
    11  H   -0.011638  -0.006702   0.000351   0.000005   0.000338   0.001850
    12  H   -0.011175   0.005492   0.000402   0.008662   0.000223   0.000265
    13  H    0.358378  -0.001903  -0.000052  -0.000611  -0.000227   0.000358
    14  H   -0.001903   0.486270  -0.000418   0.006522   0.001437   0.000710
    15  H   -0.000052  -0.000418   0.494157  -0.009921  -0.003948   0.006256
    16  H   -0.000611   0.006522  -0.009921   0.513112   0.005431  -0.002935
    17  H   -0.000227   0.001437  -0.003948   0.005431   0.472419  -0.022761
    18  H    0.000358   0.000710   0.006256  -0.002935  -0.022761   0.547262
    19  H    0.000000  -0.000000  -0.000009  -0.000149  -0.000380  -0.000639
              19
     1  N    0.000001
     2  C    0.000027
     3  C   -0.000110
     4  C    0.016323
     5  C   -0.022852
     6  O    0.001743
     7  O    0.291635
     8  C    0.000004
     9  O    0.000000
    10  O    0.000000
    11  H   -0.000002
    12  H   -0.000001
    13  H    0.000000
    14  H   -0.000000
    15  H   -0.000009
    16  H   -0.000149
    17  H   -0.000380
    18  H   -0.000639
    19  H    0.375443
 Mulliken charges:
               1
     1  N   -0.239655
     2  C   -0.157059
     3  C   -0.291011
     4  C   -0.258166
     5  C    0.207052
     6  O   -0.359390
     7  O   -0.281008
     8  C    0.051707
     9  O   -0.402327
    10  O   -0.499889
    11  H    0.324626
    12  H    0.319455
    13  H    0.332072
    14  H    0.213386
    15  H    0.183294
    16  H    0.170733
    17  H    0.204804
    18  H    0.142407
    19  H    0.338967
 Sum of Mulliken charges =  -0.00000
 Mulliken charges with hydrogens summed into heavy atoms:
               1
     1  N    0.736498
     2  C    0.056327
     3  C    0.063017
     4  C    0.089045
     5  C    0.207052
     6  O   -0.359390
     7  O    0.057959
     8  C    0.051707
     9  O   -0.402327
    10  O   -0.499889
 Electronic spatial extent (au):  <R**2>=           2117.7495
 Charge=             -0.0000 electrons
 Dipole moment (field-independent basis, Debye):
    X=             -8.7000    Y=             13.3541    Z=             -2.4017  Tot=             16.1180
 Quadrupole moment (field-independent basis, Debye-Ang):
   XX=            -89.6181   YY=            -52.7985   ZZ=            -61.8562
   XY=             16.9512   XZ=             -8.9688   YZ=             -4.3710
 Traceless Quadrupole moment (field-independent basis, Debye-Ang):
   XX=            -21.5272   YY=             15.2925   ZZ=              6.2348
   XY=             16.9512   XZ=             -8.9688   YZ=             -4.3710
 Octapole moment (field-independent basis, Debye-Ang**2):
  XXX=           -191.3703  YYY=             54.1287  ZZZ=             -8.3211  XYY=             23.5708
  XXY=             84.0027  XXZ=             16.1861  XZZ=            -28.6261  YZZ=             11.4240
  YYZ=             -0.9019  XYZ=             -2.5653
 Hexadecapole moment (field-independent basis, Debye-Ang**3):
 XXXX=          -2158.4328 YYYY=           -285.3701 ZZZZ=           -214.2429 XXXY=            139.6174
 XXXZ=           -131.1307 YYYX=             54.6303 YYYZ=            -16.0985 ZZZX=            -31.0297
 ZZZY=             -0.1075 XXYY=           -464.5527 XXZZ=           -403.7384 YYZZ=            -87.3637
 XXYZ=            -31.9535 YYXZ=             -2.4682 ZZXY=             21.3357
 N-N= 5.330318490308D+02 E-N=-2.359617888015D+03  KE= 5.494380463931D+02
 No NMR shielding tensors so no spin-rotation constants.
 Leave Link  601 at Mon Feb 22 21:22:36 2021, MaxMem=   104857600 cpu:               6.4 elap:               0.3
 (Enter /sw/arch/RedHatEnterpriseServer7/EB_production/2019/software/Gaussian/g16.c01/l701.exe)
 ... and contract with generalized density number  0.
 Compute integral first derivatives.
 R6Disp: Adding Grimme-D3 dispersion energy 1st derivatives to the gradient.
 PrsmSu:  requested number of processors reduced to:  29 ShMem   1 Linda.
 D1PCM: PCM CHGder 1st derivatives, ID1Alg=3 FixD1E=F DoIter=F DoCFld=F I1PDM=0.
 GePol: Maximum number of non-zero 1st derivatives   =     221
 CoulSu:  requested number of processors reduced to:  29 ShMem   1 Linda.
 CoulSu:  requested number of processors reduced to:  30 ShMem   1 Linda.
 Leave Link  701 at Mon Feb 22 21:22:38 2021, MaxMem=   104857600 cpu:              19.7 elap:               0.7
 (Enter /sw/arch/RedHatEnterpriseServer7/EB_production/2019/software/Gaussian/g16.c01/l702.exe)
 L702 exits ... SP integral derivatives will be done elsewhere.
 Leave Link  702 at Mon Feb 22 21:22:38 2021, MaxMem=   104857600 cpu:               0.7 elap:               0.0
 (Enter /sw/arch/RedHatEnterpriseServer7/EB_production/2019/software/Gaussian/g16.c01/l703.exe)
 Integral derivatives from FoFJK, PRISM(SPDF).
 Compute integral first derivatives, UseDBF=F ICtDFT=           0.
 Calling FoFJK, ICntrl=      2527 FMM=F ISym2X=0 I1Cent= 0 IOpClX= 0 NMat=1 NMatS=1 NMatT=0.
 FoFJK:  IHMeth= 1 ICntrl=    2527 DoSepK=F KAlg= 0 I1Cent=           0 FoldK=F
 IRaf=         0 NMat=       1 IRICut=       1 DoRegI=T DoRafI=F ISym2E= 0 IDoP0=0 IntGTp=1.
 FoFCou: FMM=F IPFlag=           0 FMFlag=      100000 FMFlg1=         800
         NFxFlg=           0 DoJE=F BraDBF=F KetDBF=F FulRan=T
         wScrn=  0.000000 ICntrl=      2527 IOpCl=  0 I1Cent=           0 NGrid=           0
         NMat0=    1 NMatS0=      1 NMatT0=    0 NMatD0=    1 NMtDS0=    0 NMtDT0=    0
 Symmetry not used in FoFCou.
 Leave Link  703 at Mon Feb 22 21:22:40 2021, MaxMem=   104857600 cpu:              50.8 elap:               1.6
 (Enter /sw/arch/RedHatEnterpriseServer7/EB_production/2019/software/Gaussian/g16.c01/l716.exe)
 Dipole        =-3.42283247D+00 5.25392417D+00-9.44902306D-01
 ***** Axes restored to original set *****
 -------------------------------------------------------------------
 Center     Atomic                   Forces (Hartrees/Bohr)
 Number     Number              X              Y              Z
 -------------------------------------------------------------------
      1        7           0.001457848    0.007287846    0.005459654
      2        6           0.026503923   -0.023995771    0.021876955
      3        6          -0.000536458    0.004547888    0.004764636
      4        6          -0.017405736    0.018327470   -0.004991589
      5        6           0.063161185   -0.054078374   -0.006061887
      6        8          -0.016775086    0.020973108    0.001112345
      7        8          -0.029309271    0.029943393    0.003663908
      8        6          -0.072479887   -0.077036726   -0.055222588
      9        8           0.019807034    0.026314736    0.002465941
     10        8           0.043053973    0.042713872    0.025639924
     11        1          -0.001256105    0.007705825    0.004729669
     12        1          -0.000078134    0.006353228   -0.006772276
     13        1          -0.005023877    0.005381926    0.000688104
     14        1          -0.002379413    0.000464552    0.003607148
     15        1          -0.002108127   -0.001749754   -0.001302644
     16        1          -0.000065189    0.001430358   -0.005479097
     17        1           0.000985347   -0.002766704    0.004113109
     18        1          -0.001047217    0.006067131    0.003399251
     19        1          -0.006504807   -0.017884005   -0.001690563
 -------------------------------------------------------------------
 Cartesian Forces:  Max     0.077036726 RMS     0.023834151
 Leave Link  716 at Mon Feb 22 21:22:40 2021, MaxMem=   104857600 cpu:               1.1 elap:               0.1
 (Enter /sw/arch/RedHatEnterpriseServer7/EB_production/2019/software/Gaussian/g16.c01/l103.exe)

 GradGradGradGradGradGradGradGradGradGradGradGradGradGradGradGradGradGrad
 Berny optimization.
 FormGI is forming the generalized inverse of G from B-inverse, IUseBI=4.
 Internal  Forces:  Max     0.059631879 RMS     0.012223073
 Search for a local minimum.
 Step number   1 out of a maximum of  100
 All quantities printed in internal units (Hartrees-Bohrs-Radians)
 RMS Force = .12223D-01 SwitMx=.10000D-02 MixMth= 1
 Mixed Optimization -- RFO/linear search
 Second derivative matrix not updated -- first step.
 ITU=  0
     Eigenvalues ---    0.00230   0.00230   0.00766   0.01062   0.01062
     Eigenvalues ---    0.01076   0.01373   0.02292   0.03366   0.04136
     Eigenvalues ---    0.04217   0.04748   0.04781   0.05423   0.06000
     Eigenvalues ---    0.06061   0.06117   0.08411   0.09489   0.12276
     Eigenvalues ---    0.12856   0.16000   0.16000   0.16000   0.16000
     Eigenvalues ---    0.16809   0.18011   0.21980   0.21995   0.24998
     Eigenvalues ---    0.25000   0.25000   0.25000   0.27109   0.27308
     Eigenvalues ---    0.34166   0.34425   0.34457   0.34495   0.34597
     Eigenvalues ---    0.34844   0.34969   0.35745   0.43809   0.43896
     Eigenvalues ---    0.43979   0.51229   0.54049   0.54663   0.82479
     Eigenvalues ---    0.82519
 RFO step:  Lambda=-3.92774409D-02 EMin= 2.30000000D-03
 Linear search not attempted -- first point.
 Maximum step size (   0.300) exceeded in Quadratic search.
    -- Step size scaled by   0.843
 Iteration  1 RMS(Cart)=  0.04503142 RMS(Int)=  0.00157033
 Iteration  2 RMS(Cart)=  0.00180944 RMS(Int)=  0.00011427
 Iteration  3 RMS(Cart)=  0.00000241 RMS(Int)=  0.00011425
 Iteration  4 RMS(Cart)=  0.00000000 RMS(Int)=  0.00011425
 ITry= 1 IFail=0 DXMaxC= 1.81D-01 DCOld= 1.00D+10 DXMaxT= 3.00D-01 DXLimC= 3.00D+00 Rises=F
 Variable       Old X    -DE/DX   Delta X   Delta X   Delta X     New X
                                 (Linear)    (Quad)   (Total)
    R1        2.77781   0.02740   0.00000   0.05820   0.05820   2.83601
    R2        1.93180   0.00612   0.00000   0.01076   0.01076   1.94256
    R3        1.93279   0.00864   0.00000   0.01522   0.01522   1.94801
    R4        1.93383   0.00541   0.00000   0.00954   0.00954   1.94338
    R5        2.94129  -0.01001   0.00000  -0.02717  -0.02717   2.91412
    R6        2.79230   0.02954   0.00000   0.06418   0.06418   2.85648
    R7        2.06565   0.00338   0.00000   0.00743   0.00743   2.07308
    R8        2.93676  -0.00341   0.00000  -0.00921  -0.00921   2.92755
    R9        2.07050   0.00147   0.00000   0.00325   0.00325   2.07376
   R10        2.06618   0.00493   0.00000   0.01084   0.01084   2.07702
   R11        2.79025   0.01271   0.00000   0.02752   0.02752   2.81777
   R12        2.06503   0.00436   0.00000   0.00957   0.00957   2.07460
   R13        2.06335   0.00669   0.00000   0.01463   0.01463   2.07798
   R14        2.36585  -0.02605   0.00000  -0.02539  -0.02539   2.34046
   R15        2.55987  -0.01155   0.00000  -0.01678  -0.01678   2.54309
   R16        1.85346  -0.00444   0.00000  -0.00679  -0.00679   1.84667
   R17        2.36606   0.01270   0.00000   0.01238   0.01238   2.37844
   R18        2.55432  -0.05963   0.00000  -0.08575  -0.08575   2.46857
    A1        1.91109   0.00828   0.00000   0.03770   0.03736   1.94845
    A2        1.91838   0.00056   0.00000   0.00144   0.00136   1.91974
    A3        1.91244   0.00467   0.00000   0.01800   0.01779   1.93023
    A4        1.90768  -0.00346   0.00000  -0.01118  -0.01138   1.89630
    A5        1.90292  -0.00589   0.00000  -0.02303  -0.02347   1.87945
    A6        1.91121  -0.00424   0.00000  -0.02321  -0.02317   1.88804
    A7        1.95133  -0.00060   0.00000  -0.00800  -0.00816   1.94318
    A8        1.89387  -0.00002   0.00000  -0.00635  -0.00654   1.88733
    A9        1.87363  -0.00007   0.00000   0.00322   0.00327   1.87690
   A10        1.95050  -0.00203   0.00000  -0.01324  -0.01336   1.93714
   A11        1.89609   0.00129   0.00000   0.01086   0.01092   1.90702
   A12        1.89615   0.00159   0.00000   0.01489   0.01495   1.91110
   A13        1.98608  -0.00055   0.00000  -0.00145  -0.00147   1.98461
   A14        1.89336  -0.00223   0.00000  -0.01873  -0.01875   1.87462
   A15        1.90598  -0.00050   0.00000  -0.00118  -0.00124   1.90474
   A16        1.89552   0.00132   0.00000   0.00492   0.00484   1.90035
   A17        1.90043   0.00225   0.00000   0.01819   0.01816   1.91859
   A18        1.87966  -0.00029   0.00000  -0.00196  -0.00209   1.87756
   A19        1.96391  -0.00805   0.00000  -0.02740  -0.02745   1.93646
   A20        1.91182   0.00308   0.00000   0.00770   0.00726   1.91907
   A21        1.91141   0.00397   0.00000   0.02229   0.02233   1.93374
   A22        1.89493  -0.00023   0.00000  -0.01442  -0.01454   1.88040
   A23        1.89498   0.00295   0.00000   0.01387   0.01410   1.90908
   A24        1.88508  -0.00155   0.00000  -0.00142  -0.00153   1.88355
   A25        2.10488   0.00915   0.00000   0.02673   0.02667   2.13156
   A26        2.10656  -0.03341   0.00000  -0.09722  -0.09728   2.00928
   A27        2.07161   0.02428   0.00000   0.07079   0.07074   2.14235
   A28        2.09619  -0.03447   0.00000  -0.14575  -0.14575   1.95044
   A29        2.11780  -0.02418   0.00000  -0.07045  -0.07049   2.04731
   A30        2.10317  -0.02355   0.00000  -0.06861  -0.06865   2.03453
   A31        2.06219   0.04772   0.00000   0.13897   0.13893   2.20112
    D1       -1.04906  -0.00130   0.00000  -0.00905  -0.00897  -1.05804
    D2        3.07506   0.00169   0.00000   0.01757   0.01762   3.09268
    D3        1.02879  -0.00012   0.00000   0.00163   0.00169   1.03049
    D4        1.04676  -0.00005   0.00000   0.00160   0.00168   1.04844
    D5       -1.11230   0.00295   0.00000   0.02822   0.02827  -1.08403
    D6        3.12462   0.00113   0.00000   0.01228   0.01234   3.13696
    D7       -3.13541  -0.00198   0.00000  -0.01481  -0.01492   3.13285
    D8        0.98872   0.00101   0.00000   0.01181   0.01166   1.00038
    D9       -1.05755  -0.00080   0.00000  -0.00413  -0.00426  -1.06181
   D10        1.05304   0.00176   0.00000   0.02345   0.02338   1.07642
   D11       -3.11832   0.00148   0.00000   0.01538   0.01534  -3.10297
   D12       -1.07424  -0.00040   0.00000   0.00185   0.00183  -1.07240
   D13       -3.10333  -0.00016   0.00000  -0.00003  -0.00002  -3.10335
   D14       -0.99151  -0.00044   0.00000  -0.00810  -0.00806  -0.99956
   D15        1.05258  -0.00232   0.00000  -0.02164  -0.02157   1.03101
   D16       -1.01148   0.00139   0.00000   0.01737   0.01734  -0.99414
   D17        1.10035   0.00111   0.00000   0.00930   0.00930   1.10965
   D18       -3.13875  -0.00077   0.00000  -0.00423  -0.00421   3.14023
   D19        1.06907  -0.00261   0.00000  -0.03841  -0.03837   1.03070
   D20       -2.06639  -0.00170   0.00000  -0.02314  -0.02310  -2.08949
   D21       -1.09049  -0.00047   0.00000  -0.01494  -0.01498  -1.10547
   D22        2.05724   0.00043   0.00000   0.00033   0.00029   2.05753
   D23        3.10087  -0.00185   0.00000  -0.02998  -0.02997   3.07091
   D24       -0.03458  -0.00095   0.00000  -0.01470  -0.01470  -0.04928
   D25       -3.11564  -0.00295   0.00000  -0.03487  -0.03487   3.13268
   D26        1.05804   0.00052   0.00000  -0.00381  -0.00378   1.05426
   D27       -1.00636  -0.00178   0.00000  -0.01989  -0.02001  -1.02637
   D28        1.05692  -0.00069   0.00000  -0.01357  -0.01350   1.04343
   D29       -1.05258   0.00279   0.00000   0.01749   0.01759  -1.03499
   D30       -3.11698   0.00049   0.00000   0.00142   0.00136  -3.11562
   D31       -0.98529  -0.00231   0.00000  -0.02401  -0.02398  -1.00928
   D32       -3.09480   0.00116   0.00000   0.00705   0.00710  -3.08770
   D33        1.12399  -0.00113   0.00000  -0.00903  -0.00913   1.11486
   D34       -1.11814   0.00197   0.00000   0.02636   0.02614  -1.09200
   D35        2.04135   0.00062   0.00000   0.00533   0.00522   2.04657
   D36        1.00102   0.00049   0.00000   0.00838   0.00850   1.00952
   D37       -2.12268  -0.00086   0.00000  -0.01265  -0.01241  -2.13509
   D38        3.04636   0.00013   0.00000   0.00639   0.00631   3.05267
   D39       -0.07733  -0.00122   0.00000  -0.01465  -0.01460  -0.09194
   D40        3.13098   0.00067   0.00000   0.01114   0.01132  -3.14088
   D41        0.00695  -0.00052   0.00000  -0.00909  -0.00928  -0.00232
         Item               Value     Threshold  Converged?
 Maximum Force            0.059632     0.000450     NO 
 RMS     Force            0.012223     0.000300     NO 
 Maximum Displacement     0.180853     0.001800     NO 
 RMS     Displacement     0.045563     0.001200     NO 
 Predicted change in Energy=-2.113222D-02
 Lowest energy point so far.  Saving SCF results.
 GradGradGradGradGradGradGradGradGradGradGradGradGradGradGradGradGradGrad

 Leave Link  103 at Mon Feb 22 21:22:40 2021, MaxMem=   104857600 cpu:               1.3 elap:               0.1
 (Enter /sw/arch/RedHatEnterpriseServer7/EB_production/2019/software/Gaussian/g16.c01/l202.exe)
                          Input orientation:                          
 ---------------------------------------------------------------------
 Center     Atomic      Atomic             Coordinates (Angstroms)
 Number     Number       Type             X           Y           Z
 ---------------------------------------------------------------------
      1          7           0       -2.299615    0.328686   -1.476195
      2          6           0       -1.895270   -1.103142   -1.672742
      3          6           0       -0.361224   -1.250428   -1.727935
      4          6           0        0.354315   -0.807391   -0.427271
      5          6           0        1.830073   -0.986600   -0.543040
      6          8           0        2.347652   -2.099995   -0.705488
      7          8           0        2.551359    0.146608   -0.461736
      8          6           0       -2.533316   -1.601251   -2.949327
      9          8           0       -2.249844   -0.990720   -4.012817
     10          8           0       -3.349894   -2.614746   -2.837597
     11          1           0       -1.931103    0.709117   -0.595189
     12          1           0       -1.948766    0.904242   -2.256118
     13          1           0       -3.324039    0.414862   -1.449417
     14          1           0       -2.283486   -1.676107   -0.821586
     15          1           0       -0.139494   -2.309255   -1.912254
     16          1           0        0.025259   -0.676806   -2.582123
     17          1           0        0.008473   -1.417774    0.417159
     18          1           0        0.131341    0.244685   -0.197974
     19          1           0        3.509457   -0.027245   -0.544042
 ---------------------------------------------------------------------
                    Distance matrix (angstroms):
                    1          2          3          4          5
     1  N    0.000000
     2  C    1.500752   0.000000
     3  C    2.512834   1.542088   0.000000
     4  C    3.071524   2.588301   1.549195   0.000000
     5  C    4.433405   3.894611   2.505068   1.491100   0.000000
     6  O    5.299960   4.464492   3.017478   2.391991   1.238518
     7  O    4.959257   4.775031   3.469598   2.395476   1.345743
     8  C    2.439138   1.511584   2.516517   3.915278   5.020676
     9  O    2.859679   2.369454   2.975738   4.435245   5.355847
    10  O    3.408856   2.399534   3.467688   4.774659   5.894736
    11  H    1.027959   2.108716   2.754532   2.747931   4.126090
    12  H    1.030844   2.091119   2.727978   3.402727   4.559555
    13  H    1.028391   2.096566   3.410137   4.008612   5.417609
    14  H    2.109021   1.097026   2.167432   2.805022   4.180236
    15  H    3.437296   2.143555   1.097385   2.169013   2.739226
    16  H    2.763898   2.167295   1.099112   2.183739   2.740654
    17  H    3.458639   2.844454   2.183143   1.097833   2.103835
    18  H    2.747808   2.845827   2.195169   1.099618   2.126223
    19  H    5.894142   5.625175   4.228469   3.252258   1.934087
                    6          7          8          9         10
     6  O    0.000000
     7  O    2.268950   0.000000
     8  C    5.395129   5.924276   0.000000
     9  O    5.771126   6.079083   1.258617   0.000000
    10  O    6.105152   6.935026   1.306313   2.286638   0.000000
    11  H    5.119669   4.519590   3.352973   3.830303   4.253166
    12  H    5.467092   4.903564   2.664532   2.601446   3.832043
    13  H    6.248681   5.963873   2.634328   3.114575   3.332603
    14  H    4.651946   5.179528   2.143665   3.264175   2.466286
    15  H    2.772358   3.921219   2.703179   3.256452   3.355034
    16  H    3.307678   3.399299   2.745132   2.705832   3.900325
    17  H    2.682819   3.112237   4.222273   4.990698   4.827505
    18  H    3.266058   2.436325   4.251803   4.663614   5.221394
    19  H    2.381627   0.977215   6.691637   6.791924   7.681552
                   11         12         13         14         15
    11  H    0.000000
    12  H    1.672444   0.000000
    13  H    1.660290   1.667824   0.000000
    14  H    2.421719   2.971215   2.418486   0.000000
    15  H    3.749012   3.703818   4.216202   2.487395   0.000000
    16  H    3.113846   2.550052   3.700346   3.070569   1.772218
    17  H    3.051306   4.045857   4.236543   2.618072   2.498559
    18  H    2.151081   2.999636   3.678956   3.147971   3.087834
    19  H    5.490404   5.795780   6.907375   6.029424   4.516017
                   16         17         18         19
    16  H    0.000000
    17  H    3.089500   0.000000
    18  H    2.558235   1.776867   0.000000
    19  H    4.088439   3.887720   3.406667   0.000000
 Stoichiometry    C5H9NO4
 Framework group  C1[X(C5H9NO4)]
 Deg. of freedom    51
 Full point group                 C1      NOp   1
 RotChk:  IX=0 Diff= 1.46D-02
 Largest Abelian subgroup         C1      NOp   1
 Largest concise Abelian subgroup C1      NOp   1
                         Standard orientation:                         
 ---------------------------------------------------------------------
 Center     Atomic      Atomic             Coordinates (Angstroms)
 Number     Number       Type             X           Y           Z
 ---------------------------------------------------------------------
      1          7           0        1.353834    1.744240   -0.220573
      2          6           0        1.222342    0.272566   -0.483518
      3          6           0       -0.116105   -0.275571    0.051404
      4          6           0       -1.361102    0.362690   -0.613885
      5          6           0       -2.617993   -0.219005   -0.061404
      6          8           0       -2.898518   -1.418958   -0.185278
      7          8           0       -3.416989    0.652837    0.580873
      8          6           0        2.393123   -0.428091    0.167049
      9          8           0        2.531231   -0.288471    1.410250
     10          8           0        3.182684   -1.104032   -0.624249
     11          1           0        0.606553    2.279725   -0.680491
     12          1           0        1.313616    1.926097    0.793306
     13          1           0        2.253209    2.095938   -0.574157
     14          1           0        1.265336    0.125700   -1.569819
     15          1           0       -0.127272   -1.356479   -0.137715
     16          1           0       -0.156313   -0.128639    1.139908
     17          1           0       -1.349420    0.168638   -1.694369
[...]
    4   C      4    2.0000  1.000     -1.378201      0.494542     -0.359285
    5   C      5    2.0000  1.000     -2.658270     -0.182946      0.081493
    6   O      6    1.7200  1.000     -2.733948     -1.222768      0.715773
    7   O      7    1.7200  1.000     -3.752260      0.519532     -0.324490
    8   C      8    2.0000  1.000      2.447396     -0.511080     -0.103796
    9   O      9    1.7200  1.000      3.388659      0.132019      0.478650
   10   O     10    1.7200  1.000      2.421839     -1.703122     -0.469889
   11   H     11    1.3000  1.000      0.911510      1.872200      1.093743
   12   H     12    1.3000  1.000      2.506333      1.487372      0.543631
   13   H     13    1.3000  1.000      1.398662      2.504953     -0.371142
   14   H     14    1.3000  1.000      1.133600      0.538286     -1.487961
   15   H     15    1.3000  1.000     -0.147978     -1.288654     -0.310194
   16   H     16    1.3000  1.000     -0.103899     -0.358797      1.184566
   17   H     17    1.3000  1.000     -1.410423      0.589475     -1.457508
   18   H     18    1.3000  1.000     -1.403733      1.526702      0.028370
   19   H     19    1.3000  1.000     -4.547934      0.034177     -0.016463
 ------------------------------------------------------------------------------
 One-electron integrals computed using PRISM.
 PrsmSu:  requested number of processors reduced to:  28 ShMem   1 Linda.
 NBasis=   244 RedAO= T EigKep=  1.18D-04  NBF=   244
 NBsUse=   244 1.00D-06 EigRej= -1.00D+00 NBFU=   244
 Initial guess from the checkpoint file:  "WHUUTDBJXJRKMK-GSVOUGTGSA-N.chk"
 B after Tr=    -0.000000    0.000000    0.000000
         Rot=    1.000000    0.000000    0.000000    0.000000 Ang=   0.00 deg.
 Requested convergence on RMS density matrix=1.00D-08 within 128 cycles.
 Requested convergence on MAX density matrix=1.00D-06.
 Requested convergence on             energy=1.00D-06.
 No special actions if energy rises.
 Inv3:  Mode=1 IEnd=     5015547.
 Iteration    1 A*A^-1 deviation from unit magnitude is 3.00D-15 for    812.
 Iteration    1 A*A^-1 deviation from orthogonality  is 3.44D-15 for    645    123.
 Iteration    1 A^-1*A deviation from unit magnitude is 2.89D-15 for    604.
 Iteration    1 A^-1*A deviation from orthogonality  is 1.48D-15 for    869    349.
 Error on nuclear    polarization charges =  0.01471
 Error on electronic polarization charges = -0.04236
 SCF Done:  E(RB-P86) =  -551.888167428     A.U. after   12 cycles
            NFock= 12  Conv=0.71D-08     -V/T= 2.0044
 --------------------------------------------------------------------
 Variational C-PCM results
 =========================
 <psi(f)|   H    |psi(f)>                     (a.u.) =    -551.807342
 <psi(f)|H+V(f)/2|psi(f)>                     (a.u.) =    -551.888167
 Total free energy in solution:
 - with all non electrostatic terms           (a.u.) =    -551.875450
 --------------------------------------------------------------------
 (Polarized solute)-Solvent               (kcal/mol) =     -50.72
 --------------------------------------------------------------------
 Cavitation energy                        (kcal/mol) =      23.50
 Dispersion energy                        (kcal/mol) =     -16.95
 Repulsion energy                         (kcal/mol) =       1.43
 Total non electrostatic                  (kcal/mol) =       7.98
 --------------------------------------------------------------------
 Partition over spheres:
 Sphere  on Atom  Surface  Charge   GEl     GCav    GDR
    1      N1       9.70  -0.139   -4.84    1.18   -0.63
    2      C2       4.54  -0.039   -0.98    0.53   -0.06
    3      C3       6.56  -0.019   -0.57    0.77   -0.17
    4      C4       8.46  -0.040   -0.93    0.99   -0.30
    5      C5      10.72  -0.037   -0.43    1.26   -0.76
    6      O6      19.33   0.232   -3.12    2.40   -1.61
    7      O7      15.90   0.090   -0.01    1.98   -1.45
    8      C8      11.10   0.043   -1.60    1.30   -0.67
    9      O9      17.49   0.262   -6.68    2.17   -1.72
   10      O10     19.76   0.344  -11.87    2.46   -1.74
   11      H11      7.52  -0.136   -5.48    1.06   -0.81
   12      H12      3.63  -0.044   -0.79    0.51   -0.32
   13      H13      8.17  -0.148   -6.20    1.15   -1.03
   14      H14      6.53  -0.055   -1.11    0.92   -0.79
   15      H15      6.05  -0.028    0.13    0.85   -0.52
   16      H16      6.56  -0.036   -0.43    0.93   -0.68
   17      H17      6.57  -0.047   -0.90    0.93   -0.78
   18      H18      6.47  -0.051   -1.59    0.91   -0.61
   19      H19      8.46  -0.152   -3.31    1.19   -0.89
 --------------------------------------------------------------------
 - cavitation energy not included in the total energy.
 - dispersion energy not included in the total energy.
 - repulsion  energy not included in the total energy.
 After PCM corrections, the energy is  -551.888167428     a.u.
 --------------------------------------------------------------------
 Writing COSMO formatted file "WHUUTDBJXJRKMK-GSVOUGTGSA-N.cosmo"
 Recomputed dielectric energy= -0.080889 old= -0.080825 diff=-6.32D-05

 **********************************************************************

            Population analysis using the SCF Density.

 **********************************************************************

 Orbital symmetries:
       Occupied  (A) (A) (A) (A) (A) (A) (A) (A) (A) (A) (A) (A)
                 (A) (A) (A) (A) (A) (A) (A) (A) (A) (A) (A) (A)
                 (A) (A) (A) (A) (A) (A) (A) (A) (A) (A) (A) (A)
                 (A) (A) (A)
       Virtual   (A) (A) (A) (A) (A) (A) (A) (A) (A) (A) (A) (A)
                 (A) (A) (A) (A) (A) (A) (A) (A) (A) (A) (A) (A)
                 (A) (A) (A) (A) (A) (A) (A) (A) (A) (A) (A) (A)
                 (A) (A) (A) (A) (A) (A) (A) (A) (A) (A) (A) (A)
                 (A) (A) (A) (A) (A) (A) (A) (A) (A) (A) (A) (A)
                 (A) (A) (A) (A) (A) (A) (A) (A) (A) (A) (A) (A)
                 (A) (A) (A) (A) (A) (A) (A) (A) (A) (A) (A) (A)
                 (A) (A) (A) (A) (A) (A) (A) (A) (A) (A) (A) (A)
                 (A) (A) (A) (A) (A) (A) (A) (A) (A) (A) (A) (A)
                 (A) (A) (A) (A) (A) (A) (A) (A) (A) (A) (A) (A)
                 (A) (A) (A) (A) (A) (A) (A) (A) (A) (A) (A) (A)
                 (A) (A) (A) (A) (A) (A) (A) (A) (A) (A) (A) (A)
                 (A) (A) (A) (A) (A) (A) (A) (A) (A) (A) (A) (A)
                 (A) (A) (A) (A) (A) (A) (A) (A) (A) (A) (A) (A)
                 (A) (A) (A) (A) (A) (A) (A) (A) (A) (A) (A) (A)
                 (A) (A) (A) (A) (A) (A) (A) (A) (A) (A) (A) (A)
                 (A) (A) (A) (A) (A) (A) (A) (A) (A) (A) (A) (A)
                 (A)
 The electronic state is 1-A.
 Alpha  occ. eigenvalues --  -18.82127 -18.77243 -18.74314 -18.73296 -14.08083
 Alpha  occ. eigenvalues --  -10.03571  -9.99761  -9.95643  -9.91807  -9.91236
 Alpha  occ. eigenvalues --   -1.02389  -0.96667  -0.94242  -0.89788  -0.87291
 Alpha  occ. eigenvalues --   -0.73799  -0.67019  -0.59554  -0.53755  -0.51504
 Alpha  occ. eigenvalues --   -0.49649  -0.47298  -0.45474  -0.44590  -0.43395
 Alpha  occ. eigenvalues --   -0.42542  -0.39617  -0.37921  -0.37833  -0.36514
 Alpha  occ. eigenvalues --   -0.34952  -0.33945  -0.32599  -0.31400  -0.29411
 Alpha  occ. eigenvalues --   -0.25211  -0.24492  -0.23629  -0.21610
 Alpha virt. eigenvalues --   -0.04810  -0.01355   0.01262   0.03211   0.05041
 Alpha virt. eigenvalues --    0.05227   0.06312   0.08057   0.09189   0.09525
 Alpha virt. eigenvalues --    0.11912   0.12811   0.13617   0.14519   0.15148
 Alpha virt. eigenvalues --    0.15816   0.17826   0.19528   0.19750   0.21156
 Alpha virt. eigenvalues --    0.22570   0.22818   0.23485   0.25647   0.27143
 Alpha virt. eigenvalues --    0.28240   0.28450   0.30040   0.31438   0.32246
 Alpha virt. eigenvalues --    0.33187   0.34301   0.35864   0.37438   0.38233
 Alpha virt. eigenvalues --    0.38616   0.39728   0.40483   0.40993   0.41235
 Alpha virt. eigenvalues --    0.41578   0.42343   0.43211   0.44073   0.44940
 Alpha virt. eigenvalues --    0.45302   0.46424   0.47352   0.47963   0.49164
 Alpha virt. eigenvalues --    0.50222   0.51626   0.52580   0.53034   0.54571
 Alpha virt. eigenvalues --    0.55750   0.57783   0.59656   0.61510   0.63477
 Alpha virt. eigenvalues --    0.64751   0.69208   0.71316   0.74501   0.75746
 Alpha virt. eigenvalues --    0.77583   0.81849   0.90095   0.92284   1.06399
 Alpha virt. eigenvalues --    1.08773   1.13621   1.18078   1.21141   1.22357
 Alpha virt. eigenvalues --    1.23331   1.26038   1.27890   1.28801   1.30051
 Alpha virt. eigenvalues --    1.31182   1.32906   1.34420   1.35268   1.36184
 Alpha virt. eigenvalues --    1.38401   1.40221   1.42189   1.44075   1.45139
 Alpha virt. eigenvalues --    1.46845   1.47461   1.49262   1.50356   1.53108
 Alpha virt. eigenvalues --    1.53990   1.56490   1.58151   1.59023   1.60987
 Alpha virt. eigenvalues --    1.61709   1.64149   1.64812   1.66950   1.68194
 Alpha virt. eigenvalues --    1.68871   1.73725   1.76178   1.76910   1.80426
 Alpha virt. eigenvalues --    1.82210   1.85040   1.85625   1.87248   1.88855
 Alpha virt. eigenvalues --    1.91611   1.92100   1.96055   1.99004   2.01868
 Alpha virt. eigenvalues --    2.07643   2.09665   2.14547   2.17461   2.17738
 Alpha virt. eigenvalues --    2.21213   2.23897   2.25288   2.30001   2.31096
 Alpha virt. eigenvalues --    2.35844   2.37541   2.39244   2.41856   2.43369
 Alpha virt. eigenvalues --    2.45747   2.47004   2.49032   2.50098   2.51386
 Alpha virt. eigenvalues --    2.52436   2.53279   2.54153   2.55158   2.56053
 Alpha virt. eigenvalues --    2.56222   2.58176   2.58551   2.59116   2.59738
 Alpha virt. eigenvalues --    2.60759   2.61424   2.62399   2.62694   2.65371
 Alpha virt. eigenvalues --    2.68062   2.69093   2.70978   2.73286   2.74583
 Alpha virt. eigenvalues --    2.76001   2.78949   2.79739   2.80131   2.82879
 Alpha virt. eigenvalues --    2.85512   2.86319   2.92377   2.93025   2.99920
 Alpha virt. eigenvalues --    3.01961   3.02480   3.06348   3.09112   3.10375
 Alpha virt. eigenvalues --    3.12550   3.14421   3.18073   3.18463   3.23577
 Alpha virt. eigenvalues --    3.28127   3.28675   3.29812   3.32727   3.35281
 Alpha virt. eigenvalues --    3.42078   3.42690   3.62222   3.78336   3.79878
 Alpha virt. eigenvalues --    3.81399   4.01338   4.08407   4.12526   4.18268
 Alpha virt. eigenvalues --   21.67224  21.69770  21.77796  21.81898  21.86138
 Alpha virt. eigenvalues --   31.40272  43.05661  43.06779  43.16135  43.21593
          Condensed to atoms (all electrons):
               1          2          3          4          5          6
     1  N    6.362234   0.033615  -0.001992  -0.009097  -0.000395   0.000017
     2  C    0.033615   6.704563  -0.180819   0.031104  -0.011896  -0.000039
     3  C   -0.001992  -0.180819   5.758941  -0.040713   0.073358   0.034991
     4  C   -0.009097   0.031104  -0.040713   5.943672  -0.032395  -0.165067
     5  C   -0.000395  -0.011896   0.073358  -0.032395   4.843598   0.616664
     6  O    0.000017  -0.000039   0.034991  -0.165067   0.616664   7.964145
     7  O    0.000004  -0.000656   0.014435  -0.179059   0.362085  -0.103234
     8  C    0.001878  -0.151638   0.016798  -0.010964   0.000813   0.000031
     9  O   -0.058733  -0.247150  -0.001450  -0.001700   0.000015  -0.000000
    10  O    0.009050  -0.245820   0.028048  -0.002369   0.000119   0.000000
    11  H    0.347881  -0.025103   0.001990  -0.002396  -0.000094   0.000001
    12  H    0.287787  -0.063679   0.007502  -0.000965   0.000126   0.000000
    13  H    0.336689   0.000214  -0.004308   0.001154   0.000005   0.000001
    14  H   -0.033340   0.390732  -0.035028  -0.017718   0.000481   0.000084
    15  H    0.010703  -0.047778   0.369797  -0.005834  -0.015343   0.003450
    16  H   -0.005904  -0.019570   0.372461  -0.036366  -0.011497   0.002355
    17  H   -0.000746   0.004807  -0.045013   0.386362  -0.010054   0.001855
    18  H    0.007059  -0.013338  -0.020306   0.376353  -0.005733   0.001825
    19  H   -0.000001   0.000054  -0.001559   0.018763  -0.017124   0.001964
               7          8          9         10         11         12
     1  N    0.000004   0.001878  -0.058733   0.009050   0.347881   0.287787
     2  C   -0.000656  -0.151638  -0.247150  -0.245820  -0.025103  -0.063679
     3  C    0.014435   0.016798  -0.001450   0.028048   0.001990   0.007502
     4  C   -0.179059  -0.010964  -0.001700  -0.002369  -0.002396  -0.000965
     5  C    0.362085   0.000813   0.000015   0.000119  -0.000094   0.000126
     6  O   -0.103234   0.000031  -0.000000   0.000000   0.000001   0.000000
     7  O    7.894349   0.000002  -0.000000  -0.000000   0.000003  -0.000000
     8  C    0.000002   4.817424   0.505668   0.617074   0.002104  -0.012190
     9  O   -0.000000   0.505668   8.259669  -0.104736   0.002133   0.111305
    10  O   -0.000000   0.617074  -0.104736   8.132278  -0.000060   0.004757
    11  H    0.000003   0.002104   0.002133  -0.000060   0.358802  -0.005325
    12  H   -0.000000  -0.012190   0.111305   0.004757  -0.005325   0.380148
    13  H   -0.000001   0.001512   0.001857  -0.000115  -0.011203  -0.004513
    14  H   -0.000023   0.003774   0.003230   0.003078   0.002622   0.003837
    15  H    0.000148   0.002201   0.001865   0.024558   0.000264  -0.000573
    16  H   -0.000057   0.006906   0.003323  -0.002245   0.002014   0.000535
    17  H    0.005295   0.000616   0.000031   0.000046   0.000232  -0.000014
    18  H    0.005731  -0.000195   0.000027  -0.000007   0.001401   0.000145
    19  H    0.284106  -0.000000   0.000000   0.000000  -0.000000   0.000000
              13         14         15         16         17         18
     1  N    0.336689  -0.033340   0.010703  -0.005904  -0.000746   0.007059
     2  C    0.000214   0.390732  -0.047778  -0.019570   0.004807  -0.013338
     3  C   -0.004308  -0.035028   0.369797   0.372461  -0.045013  -0.020306
     4  C    0.001154  -0.017718  -0.005834  -0.036366   0.386362   0.376353
     5  C    0.000005   0.000481  -0.015343  -0.011497  -0.010054  -0.005733
     6  O    0.000001   0.000084   0.003450   0.002355   0.001855   0.001825
     7  O   -0.000001  -0.000023   0.000148  -0.000057   0.005295   0.005731
     8  C    0.001512   0.003774   0.002201   0.006906   0.000616  -0.000195
     9  O    0.001857   0.003230   0.001865   0.003323   0.000031   0.000027
    10  O   -0.000115   0.003078   0.024558  -0.002245   0.000046  -0.000007
    11  H   -0.011203   0.002622   0.000264   0.002014   0.000232   0.001401
    12  H   -0.004513   0.003837  -0.000573   0.000535  -0.000014   0.000145
    13  H    0.355411  -0.004170  -0.000357   0.000243   0.000162  -0.000831
    14  H   -0.004170   0.448292   0.000391   0.006437   0.002481   0.001287
    15  H   -0.000357   0.000391   0.500511  -0.010823  -0.001288   0.003014
    16  H    0.000243   0.006437  -0.010823   0.517766   0.004561  -0.001158
    17  H    0.000162   0.002481  -0.001288   0.004561   0.470899  -0.012263
    18  H   -0.000831   0.001287   0.003014  -0.001158  -0.012263   0.466277
    19  H   -0.000000   0.000001  -0.000006  -0.000002  -0.000311  -0.000360
              19
     1  N   -0.000001
     2  C    0.000054
     3  C   -0.001559
     4  C    0.018763
     5  C   -0.017124
     6  O    0.001964
     7  O    0.284106
     8  C   -0.000000
     9  O    0.000000
    10  O    0.000000
    11  H   -0.000000
    12  H    0.000000
    13  H   -0.000000
    14  H    0.000001
    15  H   -0.000006
    16  H   -0.000002
    17  H   -0.000311
    18  H   -0.000360
    19  H    0.381741
 Mulliken charges:
               1
     1  N   -0.286710
     2  C   -0.157601
     3  C   -0.347133
     4  C   -0.252765
     5  C    0.207270
     6  O   -0.359042
     7  O   -0.283126
     8  C    0.198187
     9  O   -0.475353
    10  O   -0.463656
    11  H    0.324735
    12  H    0.291117
    13  H    0.328249
    14  H    0.223553
    15  H    0.165101
    16  H    0.171021
    17  H    0.192344
    18  H    0.191073
    19  H    0.332736
 Sum of Mulliken charges =  -0.00000
 Mulliken charges with hydrogens summed into heavy atoms:
               1
     1  N    0.657392
     2  C    0.065952
     3  C   -0.011012
     4  C    0.130651
     5  C    0.207270
     6  O   -0.359042
     7  O    0.049610
     8  C    0.198187
     9  O   -0.475353
    10  O   -0.463656
 Electronic spatial extent (au):  <R**2>=           2136.1076
 Charge=              0.0000 electrons
 Dipole moment (field-independent basis, Debye):
    X=             -7.3754    Y=             12.1652    Z=             -0.6576  Tot=             14.2415
 Quadrupole moment (field-independent basis, Debye-Ang):
   XX=            -83.1042   YY=            -58.4063   ZZ=            -57.4845
   XY=             15.4425   XZ=              0.6608   YZ=              1.6936
 Traceless Quadrupole moment (field-independent basis, Debye-Ang):
   XX=            -16.7725   YY=              7.9254   ZZ=              8.8472
   XY=             15.4425   XZ=              0.6608   YZ=              1.6936
 Octapole moment (field-independent basis, Debye-Ang**2):
  XXX=           -187.1946  YYY=             59.5349  ZZZ=              0.4548  XYY=              6.7021
  XXY=             44.1953  XXZ=             -9.7174  XZZ=              0.7148  YZZ=             10.4681
  YYZ=              3.9845  XYZ=            -13.7615
 Hexadecapole moment (field-independent basis, Debye-Ang**3):
 XXXX=          -2114.4768 YYYY=           -353.7730 ZZZZ=           -126.1366 XXXY=            108.4039
 XXXZ=            -45.0621 YYYX=             81.7921 YYYZ=             -1.1399 ZZZX=              3.6001
 ZZZY=              3.5133 XXYY=           -481.9478 XXZZ=           -392.5521 YYZZ=            -83.7804
 XXYZ=             14.2101 YYXZ=             19.5584 ZZXY=              8.1667
 N-N= 5.343203049638D+02 E-N=-2.362474169056D+03  KE= 5.494724157276D+02
 Unable to Open any file for archive entry.
 1\1\GINC-TCN1717\SP\RBP86\TZVP\C5H9N1O4\ELENAA\22-Feb-2021\0\\# BP86/T
 ZVP SCRF=COSMORS geom=CHECKPOINT guess=CHECKPOINT\\COSMO-file for #WHU
 UTDBJXJRKMK-GSVOUGTGSA-N\\0,1\N,0,-2.3078315519,0.4058410702,-1.673504
 771\C,0,-1.8530948453,-1.0387816883,-1.6646523407\C,0,-0.3405474892,-1
 .1945680384,-1.7640767135\C,0,0.4044564969,-0.7196504607,-0.5145501773
 \C,0,1.8989628997,-0.9426699351,-0.6070929078\O,0,2.4885136716,-1.4480
 359951,-1.5485295737\O,0,2.5327810732,-0.5041095522,0.5158728597\C,0,-
 2.6322798781,-1.6949472222,-2.8680085782\O,0,-3.4753517832,-0.90860862
 36,-3.4245134423\O,0,-2.3722431791,-2.8843791911,-3.1386968465\H,0,-1.
 5783534788,1.0583675465,-1.9839458706\H,0,-3.0715070421,0.3165937104,-
 2.4470203683\H,0,-2.6881373496,0.7356451647,-0.780695944\H,0,-2.229039
 0939,-1.4943008691,-0.7372155985\H,0,-0.1444970839,-2.2621923232,-1.93
 4008698\H,0,0.0304114316,-0.666361761,-2.6576223107\H,0,0.0420667523,-
 1.2468708896,0.3837016932\H,0,0.2452834687,0.3529166032,-0.3131886615\
 H,0,3.4922869811,-0.6771475454,0.4020582498\\Version=ES64L-G16RevC.01\
 State=1-A\HF=-551.8881674\RMSD=7.090e-09\Dipole=1.0733153,4.0402991,3.
 7306739\Quadrupole=-3.1035971,5.7107183,-2.6071212,-9.4742724,-9.98026
 04,-6.0412563\PG=C01 [X(C5H9N1O4)]\\@
 The archive entry for this job was punched.


 THE TRULY SUCCESSFUL PERFORMANCE OF RESEARCHES IN
 INORGANIC CHEMISTRY IS POSSIBLE ONLY TO ONE WHO IS NOT
 ONLY A THEORETICAL CHEMIST, BUT ALSO AN ACCOMPLISHED
 ANALYST AND, MOREOVER, NOT MERELY A PRACTICALLY TRAINED,
 MECHANICAL WORKER, BUT A THINKING CREATIVE ARTIST.
   --  CLEMENS WINKLER, BER. 33, 1697(1900)
 Job cpu time:       0 days  0 hours  5 minutes 58.3 seconds.
 Elapsed time:       0 days  0 hours  0 minutes 11.7 seconds.
 File lengths (MBytes):  RWF=     51 Int=      0 D2E=      0 Chk=      9 Scr=      1
 Normal termination of Gaussian 16 at Mon Feb 22 21:28:45 2021.
