 Entering Gaussian System, Link 0=g16
 Input=WLJVXDMOQOGPHL-UHFFFAOYSA-N.gjf
 Output=WLJVXDMOQOGPHL-UHFFFAOYSA-N.log
 Initial command:
 /sw/arch/RedHatEnterpriseServer7/EB_production/2019/software/Gaussian/g16.c01/l1.exe "/scratch-local/elenaa.9715288/Gau-22473.inp" -scrdir="/scratch-local/elenaa.9715288/"
 Entering Link 1 = /sw/arch/RedHatEnterpriseServer7/EB_production/2019/software/Gaussian/g16.c01/l1.exe PID=     22474.
  
 Copyright (c) 1988-2019, Gaussian, Inc.  All Rights Reserved.
  
 This is part of the Gaussian(R) 16 program.  It is based on
 the Gaussian(R) 09 system (copyright 2009, Gaussian, Inc.),
 the Gaussian(R) 03 system (copyright 2003, Gaussian, Inc.),
 the Gaussian(R) 98 system (copyright 1998, Gaussian, Inc.),
 the Gaussian(R) 94 system (copyright 1995, Gaussian, Inc.),
 the Gaussian 92(TM) system (copyright 1992, Gaussian, Inc.),
 the Gaussian 90(TM) system (copyright 1990, Gaussian, Inc.),
 the Gaussian 88(TM) system (copyright 1988, Gaussian, Inc.),
 the Gaussian 86(TM) system (copyright 1986, Carnegie Mellon
 University), and the Gaussian 82(TM) system (copyright 1983,
 Carnegie Mellon University). Gaussian is a federally registered
 trademark of Gaussian, Inc.
  
 This software contains proprietary and confidential information,
 including trade secrets, belonging to Gaussian, Inc.
  
 This software is provided under written license and may be
 used, copied, transmitted, or stored only in accord with that
 written license.
  
 The following legend is applicable only to US Government
 contracts under FAR:
  
                    RESTRICTED RIGHTS LEGEND
  
 Use, reproduction and disclosure by the US Government is
 subject to restrictions as set forth in subparagraphs (a)
 and (c) of the Commercial Computer Software - Restricted
 Rights clause in FAR 52.227-19.
  
 Gaussian, Inc.
 340 Quinnipiac St., Bldg. 40, Wallingford CT 06492
  
  
 ---------------------------------------------------------------
 Warning -- This program may not be used in any manner that
 competes with the business of Gaussian, Inc. or will provide
 assistance to any competitor of Gaussian, Inc.  The licensee
 of this program is prohibited from giving any competitor of
 Gaussian, Inc. access to this program.  By using this program,
 the user acknowledges that Gaussian, Inc. is engaged in the
 business of creating and licensing software in the field of
 computational chemistry and represents and warrants to the
 licensee that it is not a competitor of Gaussian, Inc. and that
 it will not use this program in any manner prohibited above.
 ---------------------------------------------------------------
  

 Cite this work as:
 Gaussian 16, Revision C.01,
 M. J. Frisch, G. W. Trucks, H. B. Schlegel, G. E. Scuseria, 
 M. A. Robb, J. R. Cheeseman, G. Scalmani, V. Barone, 
 G. A. Petersson, H. Nakatsuji, X. Li, M. Caricato, A. V. Marenich, 
 J. Bloino, B. G. Janesko, R. Gomperts, B. Mennucci, H. P. Hratchian, 
 J. V. Ortiz, A. F. Izmaylov, J. L. Sonnenberg, D. Williams-Young, 
 F. Ding, F. Lipparini, F. Egidi, J. Goings, B. Peng, A. Petrone, 
 T. Henderson, D. Ranasinghe, V. G. Zakrzewski, J. Gao, N. Rega, 
 G. Zheng, W. Liang, M. Hada, M. Ehara, K. Toyota, R. Fukuda, 
 J. Hasegawa, M. Ishida, T. Nakajima, Y. Honda, O. Kitao, H. Nakai, 
 T. Vreven, K. Throssell, J. A. Montgomery, Jr., J. E. Peralta, 
 F. Ogliaro, M. J. Bearpark, J. J. Heyd, E. N. Brothers, K. N. Kudin, 
 V. N. Staroverov, T. A. Keith, R. Kobayashi, J. Normand, 
 K. Raghavachari, A. P. Rendell, J. C. Burant, S. S. Iyengar, 
 J. Tomasi, M. Cossi, J. M. Millam, M. Klene, C. Adamo, R. Cammi, 
 J. W. Ochterski, R. L. Martin, K. Morokuma, O. Farkas, 
 J. B. Foresman, and D. J. Fox, Gaussian, Inc., Wallingford CT, 2019.
 
 ******************************************
 Gaussian 16:  ES64L-G16RevC.01  3-Jul-2019
                22-Feb-2021 
 ******************************************
 %chk=WLJVXDMOQOGPHL-UHFFFAOYSA-N.chk
 %NProcShared=32
 Will use up to   32 processors via shared memory.
 -------------------------------------------------------------
 #P BP86/TZVP EmpiricalDispersion=GD3 SCRF=(Solvent=Water) Opt
 -------------------------------------------------------------
 1/18=20,19=15,26=3,38=1/1,3;
 2/9=110,12=2,17=6,18=5,40=1/2;
 3/5=19,7=101,11=2,25=1,30=1,70=2201,71=1,72=1,74=404,124=31/1,2,3;
 4//1;
 5/5=2,38=5,53=1/2;
 6/7=2,8=2,9=2,10=2,28=1/1;
 7//1,2,3,16;
 1/18=20,19=15,26=3/3(2);
 2/9=110/2;
 99//99;
 2/9=110/2;
 3/5=19,7=101,11=2,25=1,30=1,70=2205,71=1,72=1,74=404,124=31/1,2,3;
 4/5=5,16=3,69=1/1;
 5/5=2,38=5,53=1/2;
 7//1,2,3,16;
 1/18=20,19=15,26=3/3(-5);
 2/9=110/2;
 6/7=2,8=2,9=2,10=2,19=2,28=1/1;
 99/9=1/99;
 Leave Link    1 at Mon Feb 22 21:22:55 2021, MaxMem=           0 cpu:               2.0 elap:               0.1
 (Enter /sw/arch/RedHatEnterpriseServer7/EB_production/2019/software/Gaussian/g16.c01/l101.exe)
 -------------------------------------
 Particle #WLJVXDMOQOGPHL-UHFFFAOYSA-N
 -------------------------------------
 Symbolic Z-matrix:
 Charge =  0 Multiplicity = 1
 O                    -3.12954   2.05324   1.85399 
 C                    -2.5518    0.97858   1.5714 
 O                    -3.09219  -0.18413   2.00104 
 C                    -1.30097   0.97645   0.79264 
 C                    -1.49704   1.55446  -0.56376 
 C                    -1.05886   2.86495  -0.87039 
 C                    -1.24128   3.40068  -2.15857 
 C                    -1.86171   2.63181  -3.15942 
 C                    -2.30956   1.33198  -2.86822 
 C                    -2.1328    0.79906  -1.5784 
 H                    -3.91711  -0.17952   2.5291 
 H                    -0.5474    1.53239   1.35636 
 H                    -0.92674  -0.04588   0.6956 
 H                    -0.60921   3.44174  -0.15601 
 H                    -0.92479   4.34987  -2.36837 
 H                    -1.98623   3.01755  -4.09823 
 H                    -2.76403   0.77379  -3.5942 
 H                    -2.46931  -0.14675  -1.38375 
 
 ITRead=  0  0  0  0  0  0  0  0  0  0  0  0  0  0  0  0  0  0
 MicOpt= -1 -1 -1 -1 -1 -1 -1 -1 -1 -1 -1 -1 -1 -1 -1 -1 -1 -1
 NAtoms=     18 NQM=       18 NQMF=       0 NMMI=      0 NMMIF=      0
                NMic=       0 NMicF=      0.
                    Isotopes and Nuclear Properties:
 (Nuclear quadrupole moments (NQMom) in fm**2, nuclear magnetic moments (NMagM)
  in nuclear magnetons)

  Atom         1           2           3           4           5           6           7           8           9          10
 IAtWgt=          16          12          16          12          12          12          12          12          12          12
 AtmWgt=  15.9949146  12.0000000  15.9949146  12.0000000  12.0000000  12.0000000  12.0000000  12.0000000  12.0000000  12.0000000
 NucSpn=           0           0           0           0           0           0           0           0           0           0
 AtZEff=  -0.0000000  -0.0000000  -0.0000000  -0.0000000  -0.0000000  -0.0000000  -0.0000000  -0.0000000  -0.0000000  -0.0000000
 NQMom=    0.0000000   0.0000000   0.0000000   0.0000000   0.0000000   0.0000000   0.0000000   0.0000000   0.0000000   0.0000000
 NMagM=    0.0000000   0.0000000   0.0000000   0.0000000   0.0000000   0.0000000   0.0000000   0.0000000   0.0000000   0.0000000
 AtZNuc=   8.0000000   6.0000000   8.0000000   6.0000000   6.0000000   6.0000000   6.0000000   6.0000000   6.0000000   6.0000000

  Atom        11          12          13          14          15          16          17          18
 IAtWgt=           1           1           1           1           1           1           1           1
 AtmWgt=   1.0078250   1.0078250   1.0078250   1.0078250   1.0078250   1.0078250   1.0078250   1.0078250
 NucSpn=           1           1           1           1           1           1           1           1
 AtZEff=  -0.0000000  -0.0000000  -0.0000000  -0.0000000  -0.0000000  -0.0000000  -0.0000000  -0.0000000
 NQMom=    0.0000000   0.0000000   0.0000000   0.0000000   0.0000000   0.0000000   0.0000000   0.0000000
 NMagM=    2.7928460   2.7928460   2.7928460   2.7928460   2.7928460   2.7928460   2.7928460   2.7928460
 AtZNuc=   1.0000000   1.0000000   1.0000000   1.0000000   1.0000000   1.0000000   1.0000000   1.0000000
 Leave Link  101 at Mon Feb 22 21:22:55 2021, MaxMem=   104857600 cpu:               4.2 elap:               0.2
 (Enter /sw/arch/RedHatEnterpriseServer7/EB_production/2019/software/Gaussian/g16.c01/l103.exe)

 GradGradGradGradGradGradGradGradGradGradGradGradGradGradGradGradGradGrad
 Berny optimization.
 Initialization pass.
                           ----------------------------
                           !    Initial Parameters    !
                           ! (Angstroms and Degrees)  !
 --------------------------                            --------------------------
 ! Name  Definition              Value          Derivative Info.                !
 --------------------------------------------------------------------------------
 ! R1    R(1,2)                  1.2524         estimate D2E/DX2                !
 ! R2    R(2,3)                  1.3522         estimate D2E/DX2                !
 ! R3    R(2,4)                  1.4734         estimate D2E/DX2                !
 ! R4    R(3,11)                 0.9795         estimate D2E/DX2                !
 ! R5    R(4,5)                  1.4874         estimate D2E/DX2                !
 ! R6    R(4,12)                 1.093          estimate D2E/DX2                !
 ! R7    R(4,13)                 1.093          estimate D2E/DX2                !
 ! R8    R(5,6)                  1.4154         estimate D2E/DX2                !
 ! R9    R(5,10)                 1.4157         estimate D2E/DX2                !
 ! R10   R(6,7)                  1.407          estimate D2E/DX2                !
 ! R11   R(6,14)                 1.0224         estimate D2E/DX2                !
 ! R12   R(7,8)                  1.4063         estimate D2E/DX2                !
 ! R13   R(7,15)                 1.0223         estimate D2E/DX2                !
 ! R14   R(8,9)                  1.4053         estimate D2E/DX2                !
 ! R15   R(8,16)                 1.0226         estimate D2E/DX2                !
 ! R16   R(9,10)                 1.4067         estimate D2E/DX2                !
 ! R17   R(9,17)                 1.0223         estimate D2E/DX2                !
 ! R18   R(10,18)                1.0226         estimate D2E/DX2                !
 ! A1    A(1,2,3)              118.8012         estimate D2E/DX2                !
 ! A2    A(1,2,4)              120.8039         estimate D2E/DX2                !
 ! A3    A(3,2,4)              120.3936         estimate D2E/DX2                !
 ! A4    A(2,3,11)             120.2532         estimate D2E/DX2                !
 ! A5    A(2,4,5)              111.6856         estimate D2E/DX2                !
 ! A6    A(2,4,12)             108.1767         estimate D2E/DX2                !
 ! A7    A(2,4,13)             109.8122         estimate D2E/DX2                !
 ! A8    A(5,4,12)             111.3181         estimate D2E/DX2                !
 ! A9    A(5,4,13)             109.1263         estimate D2E/DX2                !
 ! A10   A(12,4,13)            106.5873         estimate D2E/DX2                !
 ! A11   A(4,5,6)              121.1007         estimate D2E/DX2                !
 ! A12   A(4,5,10)             120.3587         estimate D2E/DX2                !
 ! A13   A(6,5,10)             118.5404         estimate D2E/DX2                !
 ! A14   A(5,6,7)              120.7126         estimate D2E/DX2                !
 ! A15   A(5,6,14)             120.4732         estimate D2E/DX2                !
 ! A16   A(7,6,14)             118.8129         estimate D2E/DX2                !
 ! A17   A(6,7,8)              120.0393         estimate D2E/DX2                !
 ! A18   A(6,7,15)             120.0839         estimate D2E/DX2                !
 ! A19   A(8,7,15)             119.8767         estimate D2E/DX2                !
 ! A20   A(7,8,9)              119.9208         estimate D2E/DX2                !
 ! A21   A(7,8,16)             120.0568         estimate D2E/DX2                !
 ! A22   A(9,8,16)             120.0224         estimate D2E/DX2                !
 ! A23   A(8,9,10)             120.023          estimate D2E/DX2                !
 ! A24   A(8,9,17)             119.9691         estimate D2E/DX2                !
 ! A25   A(10,9,17)            120.0079         estimate D2E/DX2                !
 ! A26   A(5,10,9)             120.7581         estimate D2E/DX2                !
 ! A27   A(5,10,18)            120.3226         estimate D2E/DX2                !
 ! A28   A(9,10,18)            118.9191         estimate D2E/DX2                !
 ! D1    D(1,2,3,11)            -0.4518         estimate D2E/DX2                !
 ! D2    D(4,2,3,11)           179.1554         estimate D2E/DX2                !
 ! D3    D(1,2,4,5)            -61.754          estimate D2E/DX2                !
 ! D4    D(1,2,4,12)            61.0897         estimate D2E/DX2                !
 ! D5    D(1,2,4,13)           177.0443         estimate D2E/DX2                !
 ! D6    D(3,2,4,5)            118.6468         estimate D2E/DX2                !
 ! D7    D(3,2,4,12)          -118.5096         estimate D2E/DX2                !
 ! D8    D(3,2,4,13)            -2.555          estimate D2E/DX2                !
 ! D9    D(2,4,5,6)            103.4519         estimate D2E/DX2                !
 ! D10   D(2,4,5,10)           -76.4091         estimate D2E/DX2                !
 ! D11   D(12,4,5,6)           -17.5824         estimate D2E/DX2                !
 ! D12   D(12,4,5,10)          162.5565         estimate D2E/DX2                !
 ! D13   D(13,4,5,6)          -134.9491         estimate D2E/DX2                !
 ! D14   D(13,4,5,10)           45.1898         estimate D2E/DX2                !
 ! D15   D(4,5,6,7)            179.6135         estimate D2E/DX2                !
 ! D16   D(4,5,6,14)            -0.8081         estimate D2E/DX2                !
 ! D17   D(10,5,6,7)            -0.5229         estimate D2E/DX2                !
 ! D18   D(10,5,6,14)          179.0555         estimate D2E/DX2                !
 ! D19   D(4,5,10,9)          -179.3036         estimate D2E/DX2                !
 ! D20   D(4,5,10,18)            0.5378         estimate D2E/DX2                !
 ! D21   D(6,5,10,9)             0.8318         estimate D2E/DX2                !
 ! D22   D(6,5,10,18)         -179.3268         estimate D2E/DX2                !
 ! D23   D(5,6,7,8)             -0.158          estimate D2E/DX2                !
 ! D24   D(5,6,7,15)           179.7287         estimate D2E/DX2                !
 ! D25   D(14,6,7,8)          -179.7433         estimate D2E/DX2                !
 ! D26   D(14,6,7,15)            0.1434         estimate D2E/DX2                !
 ! D27   D(6,7,8,9)              0.5435         estimate D2E/DX2                !
 ! D28   D(6,7,8,16)          -179.4045         estimate D2E/DX2                !
 ! D29   D(15,7,8,9)          -179.3434         estimate D2E/DX2                !
 ! D30   D(15,7,8,16)            0.7085         estimate D2E/DX2                !
 ! D31   D(7,8,9,10)            -0.2372         estimate D2E/DX2                !
 ! D32   D(7,8,9,17)           179.7561         estimate D2E/DX2                !
 ! D33   D(16,8,9,10)          179.7109         estimate D2E/DX2                !
 ! D34   D(16,8,9,17)           -0.2958         estimate D2E/DX2                !
 ! D35   D(8,9,10,5)            -0.4595         estimate D2E/DX2                !
 ! D36   D(8,9,10,18)          179.6969         estimate D2E/DX2                !
 ! D37   D(17,9,10,5)          179.5472         estimate D2E/DX2                !
 ! D38   D(17,9,10,18)          -0.2964         estimate D2E/DX2                !
 --------------------------------------------------------------------------------
 Trust Radius=3.00D-01 FncErr=1.00D-07 GrdErr=1.00D-06 EigMax=2.50D+02 EigMin=1.00D-04
 Number of steps in this run=     94 maximum allowed number of steps=    108.
 GradGradGradGradGradGradGradGradGradGradGradGradGradGradGradGradGradGrad

 Leave Link  103 at Mon Feb 22 21:22:55 2021, MaxMem=   104857600 cpu:               0.6 elap:               0.1
 (Enter /sw/arch/RedHatEnterpriseServer7/EB_production/2019/software/Gaussian/g16.c01/l202.exe)
                          Input orientation:                          
 ---------------------------------------------------------------------
 Center     Atomic      Atomic             Coordinates (Angstroms)
 Number     Number       Type             X           Y           Z
 ---------------------------------------------------------------------
      1          8           0       -3.129540    2.053240    1.853990
      2          6           0       -2.551800    0.978580    1.571400
      3          8           0       -3.092190   -0.184130    2.001040
      4          6           0       -1.300970    0.976450    0.792640
      5          6           0       -1.497040    1.554460   -0.563760
      6          6           0       -1.058860    2.864950   -0.870390
      7          6           0       -1.241280    3.400680   -2.158570
      8          6           0       -1.861710    2.631810   -3.159420
      9          6           0       -2.309560    1.331980   -2.868220
     10          6           0       -2.132800    0.799060   -1.578400
     11          1           0       -3.917110   -0.179520    2.529100
     12          1           0       -0.547400    1.532390    1.356360
     13          1           0       -0.926740   -0.045880    0.695600
     14          1           0       -0.609210    3.441740   -0.156010
     15          1           0       -0.924790    4.349870   -2.368370
     16          1           0       -1.986230    3.017550   -4.098230
     17          1           0       -2.764030    0.773790   -3.594200
     18          1           0       -2.469310   -0.146750   -1.383750
 ---------------------------------------------------------------------
                    Distance matrix (angstroms):
                    1          2          3          4          5
     1  O    0.000000
     2  C    1.252412   0.000000
     3  O    2.242508   1.352223   0.000000
     4  C    2.372680   1.473447   2.452681   0.000000
     5  C    2.959620   2.450115   3.485025   1.487400   0.000000
     6  C    3.516935   3.427769   4.655795   2.527987   1.415418
     7  C    4.634842   4.636454   5.794746   3.819698   2.453031
     8  C    5.203500   5.058661   6.006159   4.321276   2.833923
     9  C    4.846839   4.460246   5.159534   3.813863   2.453614
    10  C    3.787844   3.182613   3.833990   2.518976   1.415738
    11  H    2.461962   2.030383   0.979470   3.346005   4.292925
    12  H    2.680740   2.090590   3.136560   1.093031   2.142233
    13  H    3.255841   2.111247   2.532284   1.092988   2.114786
    14  H    3.509999   3.581167   4.895405   2.730590   2.125165
    15  H    5.288077   5.434569   6.659318   4.638260   3.376152
    16  H    6.137261   6.051609   6.976747   5.343808   3.856477
    17  H    5.608330   5.174012   5.686124   4.628821   3.376133
    18  H    3.969738   3.163239   3.441828   2.713535   2.124102
                    6          7          8          9         10
     6  C    0.000000
     7  C    1.407015   0.000000
     8  C    2.436920   1.406341   0.000000
     9  C    2.811685   2.433998   1.405320   0.000000
    10  C    2.433624   2.810664   2.435588   1.406728   0.000000
    11  H    5.384693   6.477048   6.669895   5.830944   4.583987
    12  H    2.644943   4.040632   4.829949   4.581752   3.415272
    13  H    3.307977   4.485978   4.785956   4.063435   2.709166
    14  H    1.022355   2.100344   3.353389   3.833844   3.365751
    15  H    2.113506   1.022323   2.110760   3.357841   3.832961
    16  H    3.361882   2.112823   1.022578   2.111543   3.360465
    17  H    3.834018   3.358624   2.110794   1.022334   2.112472
    18  H    3.365003   3.833101   3.352995   2.101384   1.022587
                   11         12         13         14         15
    11  H    0.000000
    12  H    3.957386   0.000000
    13  H    3.510256   1.752552   0.000000
    14  H    5.591560   2.436535   3.604103   0.000000
    15  H    7.311263   4.685534   5.358221   2.412225   0.000000
    16  H    7.607303   5.833394   5.786876   4.197287   2.427786
    17  H    6.303427   5.476949   4.738130   4.856167   4.204023
    18  H    4.172241   3.744523   2.591022   4.224284   4.855369
                   16         17         18
    16  H    0.000000
    17  H    2.427649   0.000000
    18  H    4.196971   2.412539   0.000000
 Stoichiometry    C8H8O2
 Framework group  C1[X(C8H8O2)]
 Deg. of freedom    48
 Full point group                 C1      NOp   1
 Largest Abelian subgroup         C1      NOp   1
 Largest concise Abelian subgroup C1      NOp   1
                         Standard orientation:                         
 ---------------------------------------------------------------------
 Center     Atomic      Atomic             Coordinates (Angstroms)
 Number     Number       Type             X           Y           Z
 ---------------------------------------------------------------------
      1          8           0        2.114909   -0.940025   -1.058924
      2          6           0        2.123897   -0.144985   -0.091265
      3          8           0        3.057477    0.832749   -0.060085
      4          6           0        1.142632   -0.273847    1.000321
      5          6           0       -0.251009   -0.102526    0.509635
      6          6           0       -1.104706   -1.216961    0.328959
      7          6           0       -2.424268   -1.044738   -0.127974
      8          6           0       -2.909767    0.245195   -0.407543
      9          6           0       -2.071763    1.360949   -0.240911
     10          6           0       -0.750488    1.187796    0.209791
     11          1           0        3.716525    0.908933   -0.780649
     12          1           0        1.281283   -1.251110    1.469842
     13          1           0        1.345453    0.474180    1.770998
     14          1           0       -0.769916   -2.163325    0.522663
     15          1           0       -3.031295   -1.856825   -0.259035
     16          1           0       -3.871606    0.371478   -0.730937
     17          1           0       -2.422765    2.298652   -0.447495
     18          1           0       -0.153937    2.010920    0.320599
 ---------------------------------------------------------------------
 Rotational constants (GHZ):           3.1082768           0.8024590           0.7192556
 Leave Link  202 at Mon Feb 22 21:22:55 2021, MaxMem=   104857600 cpu:               0.7 elap:               0.1
 (Enter /sw/arch/RedHatEnterpriseServer7/EB_production/2019/software/Gaussian/g16.c01/l301.exe)
 Standard basis: TZVP (5D, 7F)
 Ernie: Thresh=  0.10000D-02 Tol=  0.10000D-05 Strict=F.
 There are   248 symmetry adapted cartesian basis functions of A   symmetry.
 There are   238 symmetry adapted basis functions of A   symmetry.
   238 basis functions,   414 primitive gaussians,   248 cartesian basis functions
    36 alpha electrons       36 beta electrons
       nuclear repulsion energy       484.0793956243 Hartrees.
 IExCor=  404 DFT=T Ex=B Corr=P86 ExCW=0 ScaHFX=  0.000000
 ScaDFX=  1.000000  1.000000  1.000000  1.000000 ScalE2=  1.000000  1.000000
 IRadAn=      5 IRanWt=     -1 IRanGd=            0 ICorTp=0 IEmpDi=131
 NAtoms=   18 NActive=   18 NUniq=   18 SFac= 1.00D+00 NAtFMM=   60 NAOKFM=F Big=F
 Integral buffers will be    131072 words long.
 Raffenetti 2 integral format.
 Two-electron integral symmetry is turned on.
 R6Disp:  Grimme-D3 Dispersion energy=       -0.0144442729 Hartrees.
 Nuclear repulsion after empirical dispersion term =      484.0649513514 Hartrees.
 ------------------------------------------------------------------------------
 Polarizable Continuum Model (PCM)
 =================================
 Model                : PCM.
 Atomic radii         : UFF (Universal Force Field).
 Polarization charges : Total charges.
 Charge compensation  : None.
 Solution method      : On-the-fly selection.
 Cavity type          : Scaled VdW (van der Waals Surface) (Alpha=1.100).
 Cavity algorithm     : GePol (No added spheres)
                        Default sphere list used, NSphG=   18.
                        Lebedev-Laikov grids with approx.  5.0 points / Ang**2.
                        Smoothing algorithm: York/Karplus (Gamma=1.0000).
                        Polarization charges: spherical gaussians, with
                                              point-specific exponents (IZeta= 3).
                        Self-potential: point-specific (ISelfS= 7).
                        Self-field    : sphere-specific E.n sum rule (ISelfD= 2).
 1st derivatives      : Analytical E(r).r(x)/FMM algorithm (CHGder, D1EAlg=3).
                        Cavity 1st derivative terms included.
 Solvent              : Water, Eps=  78.355300 Eps(inf)=   1.777849
 ------------------------------------------------------------------------------
 Spheres list:
 ISph  on   Nord     Re0    Alpha      Xe            Ye            Ze
    1   O      1    1.7500  1.100      2.114909     -0.940025     -1.058924
    2   C      2    1.9255  1.100      2.123897     -0.144985     -0.091265
    3   O      3    1.7500  1.100      3.057477      0.832749     -0.060085
    4   C      4    1.9255  1.100      1.142632     -0.273847      1.000321
    5   C      5    1.9255  1.100     -0.251009     -0.102526      0.509635
    6   C      6    1.9255  1.100     -1.104706     -1.216961      0.328959
    7   C      7    1.9255  1.100     -2.424268     -1.044738     -0.127974
    8   C      8    1.9255  1.100     -2.909767      0.245195     -0.407543
    9   C      9    1.9255  1.100     -2.071763      1.360949     -0.240911
   10   C     10    1.9255  1.100     -0.750488      1.187796      0.209791
   11   H     11    1.4430  1.100      3.716525      0.908933     -0.780649
   12   H     12    1.4430  1.100      1.281283     -1.251110      1.469842
   13   H     13    1.4430  1.100      1.345453      0.474180      1.770998
   14   H     14    1.4430  1.100     -0.769916     -2.163325      0.522663
   15   H     15    1.4430  1.100     -3.031295     -1.856825     -0.259035
   16   H     16    1.4430  1.100     -3.871606      0.371478     -0.730937
   17   H     17    1.4430  1.100     -2.422765      2.298652     -0.447495
   18   H     18    1.4430  1.100     -0.153937      2.010920      0.320599
 ------------------------------------------------------------------------------
 GePol: Number of generator spheres                  =      18
 GePol: Total number of spheres                      =      18
 GePol: Number of exposed spheres                    =      18 (100.00%)
 GePol: Number of points                             =    1563
 GePol: Average weight of points                     =       0.13
 GePol: Minimum weight of points                     =   0.20D-10
 GePol: Maximum weight of points                     =    0.20577
 GePol: Number of points with low weight             =     118
 GePol: Fraction of low-weight points (<1% of avg)   =       7.55%
 GePol: Cavity surface area                          =    203.331 Ang**2
 GePol: Cavity volume                                =    200.062 Ang**3
 Leave Link  301 at Mon Feb 22 21:22:55 2021, MaxMem=   104857600 cpu:               1.6 elap:               0.1
 (Enter /sw/arch/RedHatEnterpriseServer7/EB_production/2019/software/Gaussian/g16.c01/l302.exe)
 NPDir=0 NMtPBC=     1 NCelOv=     1 NCel=       1 NClECP=     1 NCelD=      1
         NCelK=      1 NCelE2=     1 NClLst=     1 CellRange=     0.0.
 One-electron integrals computed using PRISM.
 One-electron integral symmetry used in STVInt
 PrsmSu:  requested number of processors reduced to:  29 ShMem   1 Linda.
 NBasis=   238 RedAO= T EigKep=  9.53D-06  NBF=   238
 NBsUse=   238 1.00D-06 EigRej= -1.00D+00 NBFU=   238
 Precomputing XC quadrature grid using
 IXCGrd= 4 IRadAn=           5 IRanWt=          -1 IRanGd=           0 AccXCQ= 0.00D+00.
 Generated NRdTot=       0 NPtTot=           0 NUsed=           0 NTot=          32
 NSgBfM=   245   245   245   245   245 MxSgAt=    18 MxSgA2=    18.
 Leave Link  302 at Mon Feb 22 21:22:56 2021, MaxMem=   104857600 cpu:              10.7 elap:               0.4
 (Enter /sw/arch/RedHatEnterpriseServer7/EB_production/2019/software/Gaussian/g16.c01/l303.exe)
 DipDrv:  MaxL=1.
 Leave Link  303 at Mon Feb 22 21:22:56 2021, MaxMem=   104857600 cpu:               1.1 elap:               0.1
 (Enter /sw/arch/RedHatEnterpriseServer7/EB_production/2019/software/Gaussian/g16.c01/l401.exe)
 ExpMin= 9.52D-02 ExpMax= 2.70D+04 ExpMxC= 9.22D+02 IAcc=3 IRadAn=         5 AccDes= 0.00D+00
 Harris functional with IExCor=  404 and IRadAn=       5 diagonalized for initial guess.
 HarFok:  IExCor=  404 AccDes= 0.00D+00 IRadAn=         5 IDoV= 1 UseB2=F ITyADJ=14
 ICtDFT=  3500011 ScaDFX=  1.000000  1.000000  1.000000  1.000000
 FoFCou: FMM=F IPFlag=           0 FMFlag=      100000 FMFlg1=           0
         NFxFlg=           0 DoJE=T BraDBF=F KetDBF=T FulRan=T
         wScrn=  0.000000 ICntrl=       500 IOpCl=  0 I1Cent=   200000004 NGrid=           0
         NMat0=    1 NMatS0=      1 NMatT0=    0 NMatD0=    1 NMtDS0=    0 NMtDT0=    0
 Petite list used in FoFCou.
 Harris En= -460.471274080871    
 JPrj=0 DoOrth=F DoCkMO=F.
 Leave Link  401 at Mon Feb 22 21:22:57 2021, MaxMem=   104857600 cpu:              12.1 elap:               0.4
 (Enter /sw/arch/RedHatEnterpriseServer7/EB_production/2019/software/Gaussian/g16.c01/l502.exe)
 Integral symmetry usage will be decided dynamically.
 Closed shell SCF:
 Using DIIS extrapolation, IDIIS=  1040.
 NGot=   104857600 LenX=   104723670 LenY=   104661725
 Requested convergence on RMS density matrix=1.00D-08 within 128 cycles.
 Requested convergence on MAX density matrix=1.00D-06.
 Requested convergence on             energy=1.00D-06.
 No special actions if energy rises.
 Fock matrices will be formed incrementally for  20 cycles.

 Cycle   1  Pass 1  IDiag  1:
 FoFJK:  IHMeth= 1 ICntrl=     500 DoSepK=F KAlg= 0 I1Cent=           0 FoldK=F
 IRaf= 910000000 NMat=       1 IRICut=       1 DoRegI=T DoRafI=F ISym2E= 0 IDoP0=0 IntGTp=1.
 FoFCou: FMM=F IPFlag=           0 FMFlag=      100000 FMFlg1=           0
         NFxFlg=           0 DoJE=T BraDBF=F KetDBF=F FulRan=T
         wScrn=  0.000000 ICntrl=       500 IOpCl=  0 I1Cent=           0 NGrid=           0
         NMat0=    1 NMatS0=      1 NMatT0=    0 NMatD0=    1 NMtDS0=    0 NMtDT0=    0
 Symmetry not used in FoFCou.
 Inv3:  Mode=1 IEnd=     7328907.
 Iteration    1 A*A^-1 deviation from unit magnitude is 3.55D-15 for    362.
 Iteration    1 A*A^-1 deviation from orthogonality  is 2.48D-15 for   1157    556.
 Iteration    1 A^-1*A deviation from unit magnitude is 3.33D-15 for    362.
 Iteration    1 A^-1*A deviation from orthogonality  is 4.75D-14 for   1107   1046.
 E= -460.034973733518    
 DIIS: error= 3.67D-02 at cycle   1 NSaved=   1.
 NSaved= 1 IEnMin= 1 EnMin= -460.034973733518     IErMin= 1 ErrMin= 3.67D-02
 ErrMax= 3.67D-02  0.00D+00 EMaxC= 1.00D-01 BMatC= 2.81D-01 BMatP= 2.81D-01
 IDIUse=3 WtCom= 6.33D-01 WtEn= 3.67D-01
 Coeff-Com:  0.100D+01
 Coeff-En:   0.100D+01
 Coeff:      0.100D+01
 Gap=     0.179 Goal=   None    Shift=    0.000
 GapD=    0.179 DampG=1.000 DampE=0.500 DampFc=0.5000 IDamp=-1.
 Damping current iteration by 5.00D-01
 RMSDP=8.05D-03 MaxDP=3.71D-01              OVMax= 3.19D-01

 Cycle   2  Pass 1  IDiag  1:
 RMSU=  4.02D-03    CP:  1.00D+00
 E= -460.054929135230     Delta-E=       -0.019955401712 Rises=F Damp=T
 DIIS: error= 2.39D-02 at cycle   2 NSaved=   2.
 NSaved= 2 IEnMin= 2 EnMin= -460.054929135230     IErMin= 2 ErrMin= 2.39D-02
 ErrMax= 2.39D-02  0.00D+00 EMaxC= 1.00D-01 BMatC= 8.60D-02 BMatP= 2.81D-01
 IDIUse=3 WtCom= 7.61D-01 WtEn= 2.39D-01
 Coeff-Com:  0.321D+00 0.679D+00
 Coeff-En:   0.467D+00 0.533D+00
 Coeff:      0.356D+00 0.644D+00
 Gap=     0.166 Goal=   None    Shift=    0.000
 RMSDP=3.17D-03 MaxDP=1.20D-01 DE=-2.00D-02 OVMax= 2.52D-01

 Cycle   3  Pass 1  IDiag  1:
 RMSU=  2.02D-03    CP:  9.66D-01  4.06D-01
 E= -460.214301026092     Delta-E=       -0.159371890861 Rises=F Damp=F
 DIIS: error= 2.96D-02 at cycle   3 NSaved=   3.
 NSaved= 3 IEnMin= 3 EnMin= -460.214301026092     IErMin= 2 ErrMin= 2.39D-02
 ErrMax= 2.96D-02  0.00D+00 EMaxC= 1.00D-01 BMatC= 8.93D-02 BMatP= 8.60D-02
 IDIUse=3 WtCom= 7.04D-01 WtEn= 2.96D-01
 EnCoef did     2 forward-backward iterations
 Coeff-Com:  0.170D+00 0.473D+00 0.358D+00
 Coeff-En:   0.214D-01 0.370D-01 0.942D+00
 Coeff:      0.126D+00 0.343D+00 0.531D+00
 Gap=     0.168 Goal=   None    Shift=    0.000
 RMSDP=2.20D-03 MaxDP=5.13D-02 DE=-1.59D-01 OVMax= 2.14D-01

 Cycle   4  Pass 1  IDiag  1:
 RMSU=  1.24D-03    CP:  9.87D-01  6.55D-01  2.62D-01
 E= -460.232198012814     Delta-E=       -0.017896986723 Rises=F Damp=F
 DIIS: error= 2.55D-02 at cycle   4 NSaved=   4.
 NSaved= 4 IEnMin= 4 EnMin= -460.232198012814     IErMin= 2 ErrMin= 2.39D-02
 ErrMax= 2.55D-02  0.00D+00 EMaxC= 1.00D-01 BMatC= 7.50D-02 BMatP= 8.60D-02
 IDIUse=3 WtCom= 7.45D-01 WtEn= 2.55D-01
 Coeff-Com:  0.768D-01 0.125D+00 0.418D+00 0.380D+00
 Coeff-En:   0.000D+00 0.000D+00 0.451D+00 0.549D+00
 Coeff:      0.572D-01 0.932D-01 0.427D+00 0.423D+00
 Gap=     0.172 Goal=   None    Shift=    0.000
 RMSDP=1.21D-03 MaxDP=3.77D-02 DE=-1.79D-02 OVMax= 1.19D-01

 Cycle   5  Pass 1  IDiag  1:
 RMSU=  3.49D-04    CP:  9.82D-01  4.76D-01  5.67D-01  4.60D-01
 E= -460.286646592829     Delta-E=       -0.054448580015 Rises=F Damp=F
 DIIS: error= 3.67D-03 at cycle   5 NSaved=   5.
 NSaved= 5 IEnMin= 5 EnMin= -460.286646592829     IErMin= 5 ErrMin= 3.67D-03
 ErrMax= 3.67D-03  0.00D+00 EMaxC= 1.00D-01 BMatC= 1.88D-03 BMatP= 7.50D-02
 IDIUse=3 WtCom= 9.63D-01 WtEn= 3.67D-02
 Coeff-Com:  0.188D-01 0.120D-01 0.213D+00 0.267D+00 0.489D+00
 Coeff-En:   0.000D+00 0.000D+00 0.000D+00 0.000D+00 0.100D+01
 Coeff:      0.181D-01 0.115D-01 0.206D+00 0.257D+00 0.508D+00
 Gap=     0.164 Goal=   None    Shift=    0.000
 RMSDP=2.61D-04 MaxDP=1.09D-02 DE=-5.44D-02 OVMax= 1.64D-02

 Cycle   6  Pass 1  IDiag  1:
 RMSU=  1.29D-04    CP:  9.79D-01  4.96D-01  5.58D-01  5.38D-01  4.74D-01
 E= -460.288040390291     Delta-E=       -0.001393797462 Rises=F Damp=F
 DIIS: error= 1.12D-03 at cycle   6 NSaved=   6.
 NSaved= 6 IEnMin= 6 EnMin= -460.288040390291     IErMin= 6 ErrMin= 1.12D-03
 ErrMax= 1.12D-03  0.00D+00 EMaxC= 1.00D-01 BMatC= 1.79D-04 BMatP= 1.88D-03
 IDIUse=3 WtCom= 9.89D-01 WtEn= 1.12D-02
 Coeff-Com: -0.659D-03-0.125D-02 0.386D-01 0.521D-01 0.277D+00 0.635D+00
 Coeff-En:   0.000D+00 0.000D+00 0.000D+00 0.000D+00 0.973D-01 0.903D+00
 Coeff:     -0.652D-03-0.124D-02 0.382D-01 0.515D-01 0.275D+00 0.638D+00
 Gap=     0.164 Goal=   None    Shift=    0.000
 RMSDP=7.52D-05 MaxDP=3.19D-03 DE=-1.39D-03 OVMax= 4.26D-03

 Cycle   7  Pass 1  IDiag  1:
 RMSU=  2.99D-05    CP:  9.80D-01  4.96D-01  5.60D-01  5.28D-01  6.06D-01
                    CP:  6.29D-01
 E= -460.288164894522     Delta-E=       -0.000124504231 Rises=F Damp=F
 DIIS: error= 4.48D-04 at cycle   7 NSaved=   7.
 NSaved= 7 IEnMin= 7 EnMin= -460.288164894522     IErMin= 7 ErrMin= 4.48D-04
 ErrMax= 4.48D-04  0.00D+00 EMaxC= 1.00D-01 BMatC= 2.23D-05 BMatP= 1.79D-04
 IDIUse=3 WtCom= 9.96D-01 WtEn= 4.48D-03
 Coeff-Com: -0.106D-02-0.881D-03 0.149D-01 0.194D-01 0.157D+00 0.423D+00
 Coeff-Com:  0.387D+00
 Coeff-En:   0.000D+00 0.000D+00 0.000D+00 0.000D+00 0.000D+00 0.752D-01
 Coeff-En:   0.925D+00
 Coeff:     -0.106D-02-0.877D-03 0.148D-01 0.193D-01 0.157D+00 0.421D+00
 Coeff:      0.390D+00
 Gap=     0.164 Goal=   None    Shift=    0.000
 RMSDP=2.17D-05 MaxDP=6.90D-04 DE=-1.25D-04 OVMax= 2.51D-03

 Cycle   8  Pass 1  IDiag  1:
 RMSU=  1.09D-05    CP:  9.80D-01  4.96D-01  5.62D-01  5.26D-01  6.00D-01
                    CP:  6.86D-01  4.47D-01
 E= -460.288187993050     Delta-E=       -0.000023098529 Rises=F Damp=F
 DIIS: error= 1.17D-04 at cycle   8 NSaved=   8.
 NSaved= 8 IEnMin= 8 EnMin= -460.288187993050     IErMin= 8 ErrMin= 1.17D-04
 ErrMax= 1.17D-04  0.00D+00 EMaxC= 1.00D-01 BMatC= 1.67D-06 BMatP= 2.23D-05
 IDIUse=3 WtCom= 9.99D-01 WtEn= 1.17D-03
 Coeff-Com: -0.231D-03 0.531D-04 0.173D-02 0.700D-03 0.384D-01 0.124D+00
 Coeff-Com:  0.233D+00 0.602D+00
 Coeff-En:   0.000D+00 0.000D+00 0.000D+00 0.000D+00 0.000D+00 0.000D+00
 Coeff-En:   0.526D-01 0.947D+00
 Coeff:     -0.230D-03 0.530D-04 0.172D-02 0.700D-03 0.383D-01 0.124D+00
 Coeff:      0.233D+00 0.602D+00
 Gap=     0.164 Goal=   None    Shift=    0.000
 RMSDP=5.91D-06 MaxDP=1.26D-04 DE=-2.31D-05 OVMax= 5.48D-04

 Cycle   9  Pass 1  IDiag  1:
 RMSU=  2.56D-06    CP:  9.80D-01  4.95D-01  5.62D-01  5.26D-01  6.05D-01
                    CP:  6.88D-01  5.23D-01  6.69D-01
 E= -460.288189732917     Delta-E=       -0.000001739866 Rises=F Damp=F
 DIIS: error= 2.48D-05 at cycle   9 NSaved=   9.
 NSaved= 9 IEnMin= 9 EnMin= -460.288189732917     IErMin= 9 ErrMin= 2.48D-05
 ErrMax= 2.48D-05  0.00D+00 EMaxC= 1.00D-01 BMatC= 8.91D-08 BMatP= 1.67D-06
 IDIUse=1 WtCom= 1.00D+00 WtEn= 0.00D+00
 Coeff-Com: -0.604D-04-0.535D-05 0.474D-03-0.293D-03 0.153D-01 0.542D-01
 Coeff-Com:  0.116D+00 0.336D+00 0.479D+00
 Coeff:     -0.604D-04-0.535D-05 0.474D-03-0.293D-03 0.153D-01 0.542D-01
 Coeff:      0.116D+00 0.336D+00 0.479D+00
 Gap=     0.164 Goal=   None    Shift=    0.000
 RMSDP=1.48D-06 MaxDP=3.96D-05 DE=-1.74D-06 OVMax= 1.21D-04

 Cycle  10  Pass 1  IDiag  1:
 RMSU=  9.32D-07    CP:  9.80D-01  4.95D-01  5.62D-01  5.26D-01  6.04D-01
                    CP:  6.89D-01  5.22D-01  6.87D-01  6.40D-01
 E= -460.288189800852     Delta-E=       -0.000000067935 Rises=F Damp=F
 DIIS: error= 7.65D-06 at cycle  10 NSaved=  10.
 NSaved=10 IEnMin=10 EnMin= -460.288189800852     IErMin=10 ErrMin= 7.65D-06
 ErrMax= 7.65D-06  0.00D+00 EMaxC= 1.00D-01 BMatC= 7.73D-09 BMatP= 8.91D-08
 IDIUse=1 WtCom= 1.00D+00 WtEn= 0.00D+00
 Coeff-Com:  0.126D-04-0.358D-04 0.955D-04-0.191D-03 0.353D-02 0.145D-01
 Coeff-Com:  0.341D-01 0.106D+00 0.263D+00 0.579D+00
 Coeff:      0.126D-04-0.358D-04 0.955D-04-0.191D-03 0.353D-02 0.145D-01
 Coeff:      0.341D-01 0.106D+00 0.263D+00 0.579D+00
 Gap=     0.164 Goal=   None    Shift=    0.000
 RMSDP=3.84D-07 MaxDP=9.70D-06 DE=-6.79D-08 OVMax= 3.68D-05

 Cycle  11  Pass 1  IDiag  1:
 RMSU=  2.70D-07    CP:  9.80D-01  4.95D-01  5.62D-01  5.26D-01  6.03D-01
                    CP:  6.90D-01  5.24D-01  6.93D-01  6.74D-01  7.99D-01
 E= -460.288189807569     Delta-E=       -0.000000006717 Rises=F Damp=F
 DIIS: error= 2.08D-06 at cycle  11 NSaved=  11.
 NSaved=11 IEnMin=11 EnMin= -460.288189807569     IErMin=11 ErrMin= 2.08D-06
 ErrMax= 2.08D-06  0.00D+00 EMaxC= 1.00D-01 BMatC= 9.61D-10 BMatP= 7.73D-09
 IDIUse=1 WtCom= 1.00D+00 WtEn= 0.00D+00
 Coeff-Com:  0.184D-04-0.228D-04 0.214D-04-0.782D-04 0.547D-03 0.326D-02
 Coeff-Com:  0.885D-02 0.295D-01 0.113D+00 0.350D+00 0.495D+00
 Coeff:      0.184D-04-0.228D-04 0.214D-04-0.782D-04 0.547D-03 0.326D-02
 Coeff:      0.885D-02 0.295D-01 0.113D+00 0.350D+00 0.495D+00
 Gap=     0.164 Goal=   None    Shift=    0.000
 RMSDP=1.82D-07 MaxDP=4.87D-06 DE=-6.72D-09 OVMax= 8.69D-06

 Cycle  12  Pass 1  IDiag  1:
 RMSU=  8.55D-08    CP:  9.80D-01  4.95D-01  5.62D-01  5.26D-01  6.03D-01
                    CP:  6.90D-01  5.24D-01  6.94D-01  6.95D-01  7.76D-01
                    CP:  6.00D-01
 E= -460.288189808441     Delta-E=       -0.000000000872 Rises=F Damp=F
 DIIS: error= 3.04D-07 at cycle  12 NSaved=  12.
 NSaved=12 IEnMin=12 EnMin= -460.288189808441     IErMin=12 ErrMin= 3.04D-07
 ErrMax= 3.04D-07  0.00D+00 EMaxC= 1.00D-01 BMatC= 2.23D-11 BMatP= 9.61D-10
 IDIUse=1 WtCom= 1.00D+00 WtEn= 0.00D+00
 Coeff-Com:  0.676D-05-0.909D-05 0.449D-05-0.177D-04 0.795D-05 0.409D-03
 Coeff-Com:  0.138D-02 0.502D-02 0.282D-01 0.102D+00 0.198D+00 0.664D+00
 Coeff:      0.676D-05-0.909D-05 0.449D-05-0.177D-04 0.795D-05 0.409D-03
 Coeff:      0.138D-02 0.502D-02 0.282D-01 0.102D+00 0.198D+00 0.664D+00
 Gap=     0.164 Goal=   None    Shift=    0.000
 RMSDP=3.15D-08 MaxDP=6.84D-07 DE=-8.72D-10 OVMax= 2.42D-06

 Cycle  13  Pass 1  IDiag  1:
 RMSU=  2.15D-08    CP:  9.80D-01  4.95D-01  5.62D-01  5.26D-01  6.03D-01
                    CP:  6.90D-01  5.24D-01  6.94D-01  6.95D-01  7.90D-01
                    CP:  6.16D-01  7.95D-01
 E= -460.288189808457     Delta-E=       -0.000000000016 Rises=F Damp=F
 DIIS: error= 1.82D-07 at cycle  13 NSaved=  13.
 NSaved=13 IEnMin=13 EnMin= -460.288189808457     IErMin=13 ErrMin= 1.82D-07
 ErrMax= 1.82D-07  0.00D+00 EMaxC= 1.00D-01 BMatC= 6.35D-12 BMatP= 2.23D-11
 IDIUse=1 WtCom= 1.00D+00 WtEn= 0.00D+00
 Coeff-Com:  0.309D-05-0.441D-05 0.174D-05-0.652D-05-0.236D-04 0.660D-04
 Coeff-Com:  0.348D-03 0.141D-02 0.110D-01 0.435D-01 0.947D-01 0.421D+00
 Coeff-Com:  0.428D+00
 Coeff:      0.309D-05-0.441D-05 0.174D-05-0.652D-05-0.236D-04 0.660D-04
 Coeff:      0.348D-03 0.141D-02 0.110D-01 0.435D-01 0.947D-01 0.421D+00
 Coeff:      0.428D+00
 Gap=     0.164 Goal=   None    Shift=    0.000
 RMSDP=9.21D-09 MaxDP=3.18D-07 DE=-1.56D-11 OVMax= 1.04D-06

 Error on total polarization charges =  0.01239
 SCF Done:  E(RB-P86) =  -460.288189808     A.U. after   13 cycles
            NFock= 13  Conv=0.92D-08     -V/T= 2.0036
 KE= 4.586572818585D+02 PE=-2.042907549176D+03 EE= 6.398971261580D+02
 Leave Link  502 at Mon Feb 22 21:23:08 2021, MaxMem=   104857600 cpu:             367.9 elap:              11.8
 (Enter /sw/arch/RedHatEnterpriseServer7/EB_production/2019/software/Gaussian/g16.c01/l601.exe)
 Copying SCF densities to generalized density rwf, IOpCl= 0 IROHF=0.

 **********************************************************************

            Population analysis using the SCF Density.

 **********************************************************************

 Orbital symmetries:
       Occupied  (A) (A) (A) (A) (A) (A) (A) (A) (A) (A) (A) (A)
                 (A) (A) (A) (A) (A) (A) (A) (A) (A) (A) (A) (A)
                 (A) (A) (A) (A) (A) (A) (A) (A) (A) (A) (A) (A)
       Virtual   (A) (A) (A) (A) (A) (A) (A) (A) (A) (A) (A) (A)
                 (A) (A) (A) (A) (A) (A) (A) (A) (A) (A) (A) (A)
                 (A) (A) (A) (A) (A) (A) (A) (A) (A) (A) (A) (A)
                 (A) (A) (A) (A) (A) (A) (A) (A) (A) (A) (A) (A)
                 (A) (A) (A) (A) (A) (A) (A) (A) (A) (A) (A) (A)
                 (A) (A) (A) (A) (A) (A) (A) (A) (A) (A) (A) (A)
                 (A) (A) (A) (A) (A) (A) (A) (A) (A) (A) (A) (A)
                 (A) (A) (A) (A) (A) (A) (A) (A) (A) (A) (A) (A)
                 (A) (A) (A) (A) (A) (A) (A) (A) (A) (A) (A) (A)
                 (A) (A) (A) (A) (A) (A) (A) (A) (A) (A) (A) (A)
                 (A) (A) (A) (A) (A) (A) (A) (A) (A) (A) (A) (A)
                 (A) (A) (A) (A) (A) (A) (A) (A) (A) (A) (A) (A)
                 (A) (A) (A) (A) (A) (A) (A) (A) (A) (A) (A) (A)
                 (A) (A) (A) (A) (A) (A) (A) (A) (A) (A) (A) (A)
                 (A) (A) (A) (A) (A) (A) (A) (A) (A) (A) (A) (A)
                 (A) (A) (A) (A) (A) (A) (A) (A) (A) (A) (A) (A)
                 (A) (A) (A) (A) (A) (A) (A) (A) (A) (A)
 The electronic state is 1-A.
 Alpha  occ. eigenvalues --  -18.82593 -18.76129 -10.04064  -9.92608  -9.92419
 Alpha  occ. eigenvalues --   -9.90403  -9.90350  -9.90279  -9.90248  -9.90100
 Alpha  occ. eigenvalues --   -1.02065  -0.92629  -0.79261  -0.73577  -0.68882
 Alpha  occ. eigenvalues --   -0.66499  -0.59353  -0.56430  -0.54362  -0.48429
 Alpha  occ. eigenvalues --   -0.46306  -0.44192  -0.43469  -0.41953  -0.40622
 Alpha  occ. eigenvalues --   -0.38928  -0.37304  -0.35722  -0.34934  -0.33012
 Alpha  occ. eigenvalues --   -0.31796  -0.31279  -0.28661  -0.24393  -0.23856
 Alpha  occ. eigenvalues --   -0.23116
 Alpha virt. eigenvalues --   -0.06729  -0.05655  -0.04398   0.01506   0.04804
 Alpha virt. eigenvalues --    0.06108   0.06802   0.08087   0.09463   0.09550
 Alpha virt. eigenvalues --    0.10466   0.11097   0.12561   0.13453   0.14968
 Alpha virt. eigenvalues --    0.15978   0.17414   0.18985   0.20295   0.20677
 Alpha virt. eigenvalues --    0.20959   0.21515   0.21789   0.22930   0.24851
 Alpha virt. eigenvalues --    0.25760   0.26026   0.27179   0.28820   0.29555
 Alpha virt. eigenvalues --    0.30360   0.31597   0.32282   0.33446   0.33516
 Alpha virt. eigenvalues --    0.34355   0.35762   0.37188   0.38188   0.39528
 Alpha virt. eigenvalues --    0.40102   0.40908   0.41551   0.41980   0.42698
 Alpha virt. eigenvalues --    0.43103   0.44422   0.46341   0.47343   0.47534
 Alpha virt. eigenvalues --    0.48378   0.48839   0.49425   0.51283   0.53002
 Alpha virt. eigenvalues --    0.54597   0.56498   0.58568   0.59879   0.61742
 Alpha virt. eigenvalues --    0.63731   0.64617   0.64693   0.66341   0.71597
 Alpha virt. eigenvalues --    0.75393   0.76560   0.80259   0.88378   0.89095
 Alpha virt. eigenvalues --    1.08842   1.11064   1.13688   1.15281   1.17302
 Alpha virt. eigenvalues --    1.18682   1.18845   1.20774   1.21791   1.22686
 Alpha virt. eigenvalues --    1.23290   1.23483   1.24607   1.27505   1.28648
 Alpha virt. eigenvalues --    1.31022   1.32128   1.34417   1.35829   1.37087
 Alpha virt. eigenvalues --    1.38071   1.38645   1.39128   1.39866   1.41289
 Alpha virt. eigenvalues --    1.41896   1.42809   1.45523   1.45559   1.46739
 Alpha virt. eigenvalues --    1.47537   1.48384   1.49660   1.52427   1.54106
 Alpha virt. eigenvalues --    1.56841   1.57284   1.58745   1.60375   1.64819
 Alpha virt. eigenvalues --    1.71367   1.73123   1.73579   1.74876   1.76689
 Alpha virt. eigenvalues --    1.78215   1.80626   1.80970   1.83131   1.84235
 Alpha virt. eigenvalues --    1.85028   1.86905   1.89886   1.93099   1.94378
 Alpha virt. eigenvalues --    1.94867   1.96787   1.98989   2.02801   2.06299
 Alpha virt. eigenvalues --    2.10858   2.12391   2.16986   2.17926   2.18596
 Alpha virt. eigenvalues --    2.20066   2.21549   2.22589   2.23039   2.24737
 Alpha virt. eigenvalues --    2.29381   2.31784   2.34626   2.40030   2.42108
 Alpha virt. eigenvalues --    2.43045   2.43819   2.48371   2.50280   2.51271
 Alpha virt. eigenvalues --    2.52181   2.52692   2.54175   2.55704   2.57006
 Alpha virt. eigenvalues --    2.57973   2.59599   2.61269   2.62325   2.65059
 Alpha virt. eigenvalues --    2.66209   2.69295   2.70622   2.73775   2.74032
 Alpha virt. eigenvalues --    2.77218   2.80500   2.85584   2.88816   2.89373
 Alpha virt. eigenvalues --    2.96975   2.99026   3.01224   3.04190   3.04848
 Alpha virt. eigenvalues --    3.06555   3.06824   3.08136   3.09583   3.14610
 Alpha virt. eigenvalues --    3.15471   3.23455   3.28060   3.31221   3.33652
 Alpha virt. eigenvalues --    3.37421   3.42014   3.44414   3.76594   3.84164
 Alpha virt. eigenvalues --    3.99892   4.18034  21.10760  21.57957  21.64797
 Alpha virt. eigenvalues --   21.71430  21.83716  21.85325  21.88016  21.99296
 Alpha virt. eigenvalues --   43.06163  43.14418
          Condensed to atoms (all electrons):
               1          2          3          4          5          6
     1  O    7.986537   0.613667  -0.125633  -0.137861  -0.008382   0.020054
     2  C    0.613667   4.863203   0.340600   0.113569  -0.074239  -0.005664
     3  O   -0.125633   0.340600   7.872667  -0.104026  -0.020316   0.002495
     4  C   -0.137861   0.113569  -0.104026   5.680006   0.119912  -0.051524
     5  C   -0.008382  -0.074239  -0.020316   0.119912   5.626774   0.223646
     6  C    0.020054  -0.005664   0.002495  -0.051524   0.223646   5.314321
     7  C   -0.002926  -0.004616  -0.000225   0.017096   0.075536   0.293574
     8  C    0.000500   0.001197   0.000122   0.003731  -0.132233   0.049026
     9  C   -0.000927  -0.001351  -0.000101   0.017641   0.047904  -0.153300
    10  C    0.004271   0.025991   0.006784  -0.081938   0.276514   0.050002
    11  H    0.001964  -0.020938   0.289454   0.014800  -0.000339  -0.000015
    12  H   -0.005447  -0.020098   0.001447   0.420238  -0.049495  -0.002764
    13  H    0.008291  -0.033453   0.011161   0.364606  -0.043565   0.012916
    14  H    0.003698   0.001126   0.000117  -0.011303  -0.074724   0.451970
    15  H   -0.000052  -0.000101  -0.000001  -0.001086   0.018767  -0.062018
    16  H    0.000000   0.000010   0.000000   0.000006  -0.003135   0.015579
    17  H    0.000003  -0.000036  -0.000018  -0.000809   0.015395  -0.001594
    18  H    0.000343   0.000283   0.002080  -0.005436  -0.064754   0.015731
               7          8          9         10         11         12
     1  O   -0.002926   0.000500  -0.000927   0.004271   0.001964  -0.005447
     2  C   -0.004616   0.001197  -0.001351   0.025991  -0.020938  -0.020098
     3  O   -0.000225   0.000122  -0.000101   0.006784   0.289454   0.001447
     4  C    0.017096   0.003731   0.017641  -0.081938   0.014800   0.420238
     5  C    0.075536  -0.132233   0.047904   0.276514  -0.000339  -0.049495
     6  C    0.293574   0.049026  -0.153300   0.050002  -0.000015  -0.002764
     7  C    5.153254   0.354077   0.033793  -0.135958   0.000001   0.001500
     8  C    0.354077   5.161538   0.362388   0.021602  -0.000001   0.000018
     9  C    0.033793   0.362388   5.134994   0.330885   0.000012  -0.000626
    10  C   -0.135958   0.021602   0.330885   5.268684  -0.000297   0.008678
    11  H    0.000001  -0.000001   0.000012  -0.000297   0.381872  -0.000453
    12  H    0.001500   0.000018  -0.000626   0.008678  -0.000453   0.457154
    13  H   -0.002112   0.000703  -0.000682  -0.006484  -0.000668  -0.019916
    14  H   -0.057195   0.014849  -0.003868   0.016522  -0.000005   0.000322
    15  H    0.442157  -0.063773   0.014448  -0.002049   0.000000  -0.000017
    16  H   -0.057001   0.437691  -0.057591   0.014697  -0.000000  -0.000000
    17  H    0.013232  -0.059996   0.438252  -0.056232   0.000001   0.000008
    18  H   -0.003706   0.014101  -0.054956   0.441549  -0.000112   0.000187
              13         14         15         16         17         18
     1  O    0.008291   0.003698  -0.000052   0.000000   0.000003   0.000343
     2  C   -0.033453   0.001126  -0.000101   0.000010  -0.000036   0.000283
     3  O    0.011161   0.000117  -0.000001   0.000000  -0.000018   0.002080
     4  C    0.364606  -0.011303  -0.001086   0.000006  -0.000809  -0.005436
     5  C   -0.043565  -0.074724   0.018767  -0.003135   0.015395  -0.064754
     6  C    0.012916   0.451970  -0.062018   0.015579  -0.001594   0.015731
     7  C   -0.002112  -0.057195   0.442157  -0.057001   0.013232  -0.003706
     8  C    0.000703   0.014849  -0.063773   0.437691  -0.059996   0.014101
     9  C   -0.000682  -0.003868   0.014448  -0.057591   0.438252  -0.054956
    10  C   -0.006484   0.016522  -0.002049   0.014697  -0.056232   0.441549
    11  H   -0.000668  -0.000005   0.000000  -0.000000   0.000001  -0.000112
    12  H   -0.019916   0.000322  -0.000017  -0.000000   0.000008   0.000187
    13  H    0.525202   0.000800  -0.000002   0.000003  -0.000043   0.000750
    14  H    0.000800   0.517141  -0.006224  -0.000171   0.000013  -0.000062
    15  H   -0.000002  -0.006224   0.518697  -0.006024  -0.000184  -0.000000
    16  H    0.000003  -0.000171  -0.006024   0.511166  -0.005850  -0.000170
    17  H   -0.000043   0.000013  -0.000184  -0.005850   0.515113  -0.005678
    18  H    0.000750  -0.000062  -0.000000  -0.000170  -0.005678   0.506663
 Mulliken charges:
               1
     1  O   -0.358101
     2  C    0.200852
     3  O   -0.276607
     4  C   -0.357621
     5  C    0.066734
     6  C   -0.172435
     7  C   -0.120482
     8  C   -0.165540
     9  C   -0.106915
    10  C   -0.183219
    11  H    0.334725
    12  H    0.209262
    13  H    0.182492
    14  H    0.146993
    15  H    0.147463
    16  H    0.150789
    17  H    0.148422
    18  H    0.153187
 Sum of Mulliken charges =  -0.00000
 Mulliken charges with hydrogens summed into heavy atoms:
               1
     1  O   -0.358101
     2  C    0.200852
     3  O    0.058118
     4  C    0.034133
     5  C    0.066734
     6  C   -0.025441
     7  C    0.026981
     8  C   -0.014751
     9  C    0.041507
    10  C   -0.030032
 Electronic spatial extent (au):  <R**2>=           1590.1883
 Charge=             -0.0000 electrons
 Dipole moment (field-independent basis, Debye):
    X=              0.1680    Y=              1.7205    Z=              1.7332  Tot=              2.4479
 Quadrupole moment (field-independent basis, Debye-Ang):
   XX=            -47.5537   YY=            -54.9562   ZZ=            -61.3500
   XY=              4.9486   XZ=              2.9265   YZ=             -5.5655
 Traceless Quadrupole moment (field-independent basis, Debye-Ang):
   XX=              7.0663   YY=             -0.3362   ZZ=             -6.7300
   XY=              4.9486   XZ=              2.9265   YZ=             -5.5655
 Octapole moment (field-independent basis, Debye-Ang**2):
  XXX=             42.2822  YYY=              3.0983  ZZZ=              2.1056  XYY=             -3.4482
  XXY=             15.3801  XXZ=            -19.9350  XZZ=             13.0839  YZZ=              3.8436
  YYZ=              1.6179  XYZ=            -11.1800
 Hexadecapole moment (field-independent basis, Debye-Ang**3):
 XXXX=          -1242.5273 YYYY=           -351.6421 ZZZZ=           -188.3565 XXXY=             67.8814
 XXXZ=            -36.6882 YYYX=             10.2874 YYYZ=            -10.5838 ZZZX=             -0.5589
 ZZZY=             -3.7075 XXYY=           -297.2475 XXZZ=           -288.6300 YYZZ=            -97.3599
 XXYZ=            -40.0536 YYXZ=              4.4880 ZZXY=             12.0807
 N-N= 4.840649513514D+02 E-N=-2.042907543420D+03  KE= 4.586572818585D+02
 No NMR shielding tensors so no spin-rotation constants.
 Leave Link  601 at Mon Feb 22 21:23:09 2021, MaxMem=   104857600 cpu:               7.0 elap:               0.3
 (Enter /sw/arch/RedHatEnterpriseServer7/EB_production/2019/software/Gaussian/g16.c01/l701.exe)
 ... and contract with generalized density number  0.
 Compute integral first derivatives.
 R6Disp: Adding Grimme-D3 dispersion energy 1st derivatives to the gradient.
 PrsmSu:  requested number of processors reduced to:  29 ShMem   1 Linda.
 D1PCM: PCM CHGder 1st derivatives, ID1Alg=3 FixD1E=F DoIter=F DoCFld=F I1PDM=0.
 GePol: Maximum number of non-zero 1st derivatives   =     209
 CoulSu:  requested number of processors reduced to:  29 ShMem   1 Linda.
 CoulSu:  requested number of processors reduced to:  30 ShMem   1 Linda.
 Leave Link  701 at Mon Feb 22 21:23:10 2021, MaxMem=   104857600 cpu:              22.3 elap:               0.8
 (Enter /sw/arch/RedHatEnterpriseServer7/EB_production/2019/software/Gaussian/g16.c01/l702.exe)
 L702 exits ... SP integral derivatives will be done elsewhere.
 Leave Link  702 at Mon Feb 22 21:23:10 2021, MaxMem=   104857600 cpu:               0.6 elap:               0.0
 (Enter /sw/arch/RedHatEnterpriseServer7/EB_production/2019/software/Gaussian/g16.c01/l703.exe)
 Integral derivatives from FoFJK, PRISM(SPDF).
 Compute integral first derivatives, UseDBF=F ICtDFT=           0.
 Calling FoFJK, ICntrl=      2527 FMM=F ISym2X=0 I1Cent= 0 IOpClX= 0 NMat=1 NMatS=1 NMatT=0.
 FoFJK:  IHMeth= 1 ICntrl=    2527 DoSepK=F KAlg= 0 I1Cent=           0 FoldK=F
 IRaf=         0 NMat=       1 IRICut=       1 DoRegI=T DoRafI=F ISym2E= 0 IDoP0=0 IntGTp=1.
 FoFCou: FMM=F IPFlag=           0 FMFlag=      100000 FMFlg1=         800
         NFxFlg=           0 DoJE=F BraDBF=F KetDBF=F FulRan=T
         wScrn=  0.000000 ICntrl=      2527 IOpCl=  0 I1Cent=           0 NGrid=           0
         NMat0=    1 NMatS0=      1 NMatT0=    0 NMatD0=    1 NMtDS0=    0 NMtDT0=    0
 Symmetry not used in FoFCou.
 Leave Link  703 at Mon Feb 22 21:23:11 2021, MaxMem=   104857600 cpu:              49.8 elap:               1.6
 (Enter /sw/arch/RedHatEnterpriseServer7/EB_production/2019/software/Gaussian/g16.c01/l716.exe)
 Dipole        = 6.60963324D-02 6.76911355D-01 6.81886946D-01
 ***** Axes restored to original set *****
 -------------------------------------------------------------------
 Center     Atomic                   Forces (Hartrees/Bohr)
 Number     Number              X              Y              Z
 -------------------------------------------------------------------
      1        8           0.015386699   -0.020073783   -0.008682230
      2        6          -0.060842230    0.047990445    0.038678285
      3        8           0.027075302   -0.028668498   -0.015299402
      4        6           0.014834144   -0.024611699    0.000344527
      5        6          -0.002725895    0.013857349   -0.025509969
      6        6          -0.027759712   -0.034912240   -0.041235839
      7        6          -0.019621396   -0.057542997    0.011671716
      8        6           0.007463750   -0.020816747    0.053247046
      9        6           0.026917870    0.033074187    0.044397605
     10        6           0.020096034    0.055775536   -0.011223333
     11        1           0.001967367    0.018518462   -0.002987419
     12        1           0.000913555    0.003699009    0.003386368
     13        1           0.002652891   -0.005447976    0.000643736
     14        1           0.024541465    0.029296143    0.040286432
     15        1           0.017692865    0.051142592   -0.010704746
     16        1          -0.006841754    0.020878200   -0.050443876
     17        1          -0.024558927   -0.030627574   -0.038721937
     18        1          -0.017192027   -0.051530409    0.012153038
 -------------------------------------------------------------------
 Cartesian Forces:  Max     0.060842230 RMS     0.029081663
 Leave Link  716 at Mon Feb 22 21:23:12 2021, MaxMem=   104857600 cpu:               0.8 elap:               0.1
 (Enter /sw/arch/RedHatEnterpriseServer7/EB_production/2019/software/Gaussian/g16.c01/l103.exe)

 GradGradGradGradGradGradGradGradGradGradGradGradGradGradGradGradGradGrad
 Berny optimization.
 FormGI is forming the generalized inverse of G from B-inverse, IUseBI=4.
 Internal  Forces:  Max     0.055632530 RMS     0.015421840
 Search for a local minimum.
 Step number   1 out of a maximum of   94
 All quantities printed in internal units (Hartrees-Bohrs-Radians)
 RMS Force = .15422D-01 SwitMx=.10000D-02 MixMth= 1
 Mixed Optimization -- RFO/linear search
 Second derivative matrix not updated -- first step.
 ITU=  0
     Eigenvalues ---    0.00933   0.01117   0.01410   0.01500   0.01897
     Eigenvalues ---    0.01934   0.01944   0.01977   0.02000   0.02007
     Eigenvalues ---    0.02009   0.02013   0.02324   0.05255   0.06689
     Eigenvalues ---    0.10013   0.13274   0.16000   0.16000   0.16000
     Eigenvalues ---    0.16000   0.16000   0.16000   0.21952   0.22000
     Eigenvalues ---    0.22000   0.23470   0.25000   0.25000   0.25000
     Eigenvalues ---    0.33736   0.34465   0.34470   0.35331   0.40178
     Eigenvalues ---    0.40287   0.43447   0.43928   0.43929   0.43964
     Eigenvalues ---    0.43968   0.43970   0.44022   0.44500   0.44643
     Eigenvalues ---    0.51488   0.54551   0.82352
 RFO step:  Lambda=-4.65532668D-02 EMin= 9.32616012D-03
 Linear search not attempted -- first point.
 Maximum step size (   0.300) exceeded in Quadratic search.
    -- Step size scaled by   0.867
 Iteration  1 RMS(Cart)=  0.03362746 RMS(Int)=  0.00097972
 Iteration  2 RMS(Cart)=  0.00137472 RMS(Int)=  0.00002159
 Iteration  3 RMS(Cart)=  0.00000059 RMS(Int)=  0.00002159
 ITry= 1 IFail=0 DXMaxC= 1.02D-01 DCOld= 1.00D+10 DXMaxT= 3.00D-01 DXLimC= 3.00D+00 Rises=F
 Variable       Old X    -DE/DX   Delta X   Delta X   Delta X     New X
                                 (Linear)    (Quad)   (Total)
    R1        2.36671  -0.02628   0.00000  -0.02619  -0.02619   2.34052
    R2        2.55533  -0.00869   0.00000  -0.01273  -0.01273   2.54260
    R3        2.78441   0.02015   0.00000   0.04370   0.04370   2.82812
    R4        1.85093  -0.00318   0.00000  -0.00491  -0.00491   1.84602
    R5        2.81078   0.01827   0.00000   0.04126   0.04126   2.85204
    R6        2.06553   0.00426   0.00000   0.00944   0.00944   2.07497
    R7        2.06545   0.00595   0.00000   0.01318   0.01318   2.07863
    R8        2.67475  -0.00976   0.00000  -0.01803  -0.01803   2.65673
    R9        2.67536  -0.00831   0.00000  -0.01537  -0.01536   2.65999
   R10        2.65887  -0.00476   0.00000  -0.00844  -0.00844   2.65044
   R11        1.93197   0.05547   0.00000   0.09894   0.09894   2.03091
   R12        2.65760  -0.00469   0.00000  -0.00799  -0.00799   2.64961
   R13        1.93191   0.05516   0.00000   0.09837   0.09837   2.03028
   R14        2.65567  -0.00333   0.00000  -0.00553  -0.00553   2.65014
   R15        1.93239   0.05502   0.00000   0.09820   0.09820   2.03060
   R16        2.65833  -0.00551   0.00000  -0.00968  -0.00968   2.64865
   R17        1.93193   0.05514   0.00000   0.09834   0.09834   2.03027
   R18        1.93241   0.05563   0.00000   0.09930   0.09930   2.03171
    A1        2.07347   0.02197   0.00000   0.06426   0.06425   2.13772
    A2        2.10843   0.01034   0.00000   0.03025   0.03023   2.13866
    A3        2.10127  -0.03230   0.00000  -0.09445  -0.09446   2.00680
    A4        2.09882  -0.03441   0.00000  -0.14445  -0.14445   1.95436
    A5        1.94928  -0.00007   0.00000  -0.00084  -0.00092   1.94837
    A6        1.88804  -0.00246   0.00000  -0.01733  -0.01737   1.87067
    A7        1.91658   0.00073   0.00000   0.00682   0.00679   1.92337
    A8        1.94287   0.00012   0.00000  -0.00295  -0.00304   1.93983
    A9        1.90461   0.00130   0.00000   0.01132   0.01128   1.91590
   A10        1.86030   0.00040   0.00000   0.00313   0.00315   1.86345
   A11        2.11361  -0.00133   0.00000  -0.00343  -0.00343   2.11017
   A12        2.10066  -0.00103   0.00000  -0.00256  -0.00256   2.09810
   A13        2.06892   0.00236   0.00000   0.00598   0.00599   2.07491
   A14        2.10683  -0.00044   0.00000  -0.00196  -0.00196   2.10488
   A15        2.10265  -0.00218   0.00000  -0.00907  -0.00907   2.09358
   A16        2.07368   0.00262   0.00000   0.01105   0.01104   2.08472
   A17        2.09508   0.00023   0.00000   0.00135   0.00135   2.09643
   A18        2.09586  -0.00086   0.00000  -0.00381  -0.00381   2.09205
   A19        2.09224   0.00063   0.00000   0.00246   0.00247   2.09471
   A20        2.09301  -0.00166   0.00000  -0.00414  -0.00415   2.08887
   A21        2.09539   0.00077   0.00000   0.00182   0.00182   2.09721
   A22        2.09479   0.00089   0.00000   0.00232   0.00232   2.09711
   A23        2.09480   0.00024   0.00000   0.00155   0.00154   2.09634
   A24        2.09386   0.00054   0.00000   0.00198   0.00199   2.09584
   A25        2.09453  -0.00077   0.00000  -0.00353  -0.00353   2.09101
   A26        2.10763  -0.00073   0.00000  -0.00273  -0.00273   2.10490
   A27        2.10003  -0.00140   0.00000  -0.00607  -0.00607   2.09396
   A28        2.07553   0.00214   0.00000   0.00880   0.00879   2.08432
    D1       -0.00789  -0.00005   0.00000  -0.00133  -0.00140  -0.00928
    D2        3.12685   0.00058   0.00000   0.00799   0.00805   3.13491
    D3       -1.07781   0.00148   0.00000   0.01502   0.01497  -1.06284
    D4        1.06622  -0.00010   0.00000  -0.00110  -0.00107   1.06515
    D5        3.09001  -0.00062   0.00000  -0.00339  -0.00343   3.08658
    D6        2.07078   0.00080   0.00000   0.00539   0.00538   2.07616
    D7       -2.06838  -0.00078   0.00000  -0.01073  -0.01066  -2.07904
    D8       -0.04459  -0.00130   0.00000  -0.01302  -0.01302  -0.05761
    D9        1.80558  -0.00187   0.00000  -0.01723  -0.01724   1.78834
   D10       -1.33359  -0.00171   0.00000  -0.01498  -0.01500  -1.34859
   D11       -0.30687   0.00125   0.00000   0.00761   0.00761  -0.29926
   D12        2.83715   0.00141   0.00000   0.00986   0.00985   2.84700
   D13       -2.35531  -0.00011   0.00000  -0.00149  -0.00147  -2.35678
   D14        0.78871   0.00005   0.00000   0.00076   0.00077   0.78948
   D15        3.13485   0.00022   0.00000   0.00299   0.00300   3.13785
   D16       -0.01410   0.00044   0.00000   0.00584   0.00583  -0.00827
   D17       -0.00913   0.00006   0.00000   0.00077   0.00078  -0.00835
   D18        3.12511   0.00028   0.00000   0.00362   0.00361   3.12872
   D19       -3.12944  -0.00042   0.00000  -0.00570  -0.00570  -3.13514
   D20        0.00939  -0.00041   0.00000  -0.00558  -0.00559   0.00380
   D21        0.01452  -0.00026   0.00000  -0.00349  -0.00350   0.01102
   D22       -3.12984  -0.00025   0.00000  -0.00338  -0.00338  -3.13322
   D23       -0.00276   0.00018   0.00000   0.00251   0.00252  -0.00024
   D24        3.13686   0.00021   0.00000   0.00290   0.00290   3.13976
   D25       -3.13711  -0.00002   0.00000  -0.00021  -0.00022  -3.13733
   D26        0.00250   0.00002   0.00000   0.00018   0.00017   0.00267
   D27        0.00949  -0.00025   0.00000  -0.00320  -0.00320   0.00629
   D28       -3.13120  -0.00014   0.00000  -0.00185  -0.00185  -3.13305
   D29       -3.13013  -0.00028   0.00000  -0.00358  -0.00358  -3.13371
   D30        0.01237  -0.00017   0.00000  -0.00223  -0.00223   0.01014
   D31       -0.00414   0.00004   0.00000   0.00051   0.00051  -0.00363
   D32        3.13734   0.00018   0.00000   0.00221   0.00220   3.13954
   D33        3.13655  -0.00006   0.00000  -0.00084  -0.00084   3.13570
   D34       -0.00516   0.00007   0.00000   0.00086   0.00086  -0.00431
   D35       -0.00802   0.00023   0.00000   0.00292   0.00291  -0.00511
   D36        3.13630   0.00022   0.00000   0.00283   0.00282   3.13912
   D37        3.13369   0.00010   0.00000   0.00122   0.00122   3.13491
   D38       -0.00517   0.00009   0.00000   0.00113   0.00113  -0.00404
         Item               Value     Threshold  Converged?
 Maximum Force            0.055633     0.000450     NO 
 RMS     Force            0.015422     0.000300     NO 
 Maximum Displacement     0.101567     0.001800     NO 
 RMS     Displacement     0.034086     0.001200     NO 
 Predicted change in Energy=-2.499569D-02
 Lowest energy point so far.  Saving SCF results.
 GradGradGradGradGradGradGradGradGradGradGradGradGradGradGradGradGradGrad

 Leave Link  103 at Mon Feb 22 21:23:12 2021, MaxMem=   104857600 cpu:               7.6 elap:               0.3
 (Enter /sw/arch/RedHatEnterpriseServer7/EB_production/2019/software/Gaussian/g16.c01/l202.exe)
                          Input orientation:                          
 ---------------------------------------------------------------------
 Center     Atomic      Atomic             Coordinates (Angstroms)
 Number     Number       Type             X           Y           Z
 ---------------------------------------------------------------------
      1          8           0       -3.166430    2.051639    1.877589
      2          6           0       -2.580119    0.997595    1.596091
      3          8           0       -3.038469   -0.208406    1.977945
      4          6           0       -1.311198    0.969400    0.803136
      5          6           0       -1.502894    1.555055   -0.574562
      6          6           0       -1.061698    2.855900   -0.873967
      7          6           0       -1.239105    3.392212   -2.157729
      8          6           0       -1.860757    2.631600   -3.158199
      9          6           0       -2.310658    1.335710   -2.866713
     10          6           0       -2.135277    0.802780   -1.582298
     11          1           0       -3.863363   -0.138551    2.496547
     12          1           0       -0.560442    1.533377    1.372306
     13          1           0       -0.937836   -0.061945    0.720397
     14          1           0       -0.587392    3.449833   -0.114175
     15          1           0       -0.898906    4.388281   -2.373128
     16          1           0       -1.989984    3.038854   -4.144146
     17          1           0       -2.789556    0.747957   -3.627946
     18          1           0       -2.486486   -0.191021   -1.370337
 ---------------------------------------------------------------------
                    Distance matrix (angstroms):
                    1          2          3          4          5
     1  O    0.000000
     2  C    1.238551   0.000000
     3  O    2.265888   1.345487   0.000000
     4  C    2.401577   1.496574   2.398097   0.000000
     5  C    3.004494   2.486546   3.461658   1.509235   0.000000
     6  C    3.556373   3.443847   4.629362   2.536495   1.405879
     7  C    4.668566   4.650126   5.771131   3.826478   2.439497
     8  C    5.234529   5.078457   5.986035   4.330946   2.821736
     9  C    4.873736   4.483699   5.136606   3.821112   2.440196
    10  C    3.820176   3.215275   3.809670   2.529261   1.407608
    11  H    2.380285   1.936069   0.976872   3.257107   4.227508
    12  H    2.704641   2.101485   3.088888   1.098026   2.163095
    13  H    3.282219   2.141626   2.452659   1.099962   2.147300
    14  H    3.545914   3.592971   4.875188   2.741879   2.154132
    15  H    5.354452   5.484335   6.681250   4.684803   3.409811
    16  H    6.214492   6.120892   7.008853   5.405459   3.896261
    17  H    5.670320   5.234190   5.692328   4.676437   3.410288
    18  H    4.005105   3.197073   3.393521   2.729810   2.156268
                    6          7          8          9         10
     6  C    0.000000
     7  C    1.402551   0.000000
     8  C    2.430334   1.402113   0.000000
     9  C    2.800342   2.424888   1.402392   0.000000
    10  C    2.422727   2.799893   2.429693   1.401605   0.000000
    11  H    5.308147   6.404319   6.607596   5.774851   4.528727
    12  H    2.654442   4.046850   4.839668   4.590383   3.426888
    13  H    3.327335   4.506170   4.811493   4.087229   2.735693
    14  H    1.074712   2.145732   3.399566   3.875000   3.399739
    15  H    2.149925   1.074377   2.151145   3.399244   3.874254
    16  H    3.404300   2.152796   1.074545   2.152990   3.403558
    17  H    3.874702   3.399635   2.152078   1.074371   2.148432
    18  H    3.400019   3.874984   3.399290   2.144986   1.075135
                   11         12         13         14         15
    11  H    0.000000
    12  H    3.868922   0.000000
    13  H    3.423345   1.764218   0.000000
    14  H    5.515828   2.425521   3.626556   0.000000
    15  H    7.279694   4.721579   5.419956   2.465886   0.000000
    16  H    7.596332   5.894174   5.863936   4.286821   2.479498
    17  H    6.280794   5.530674   4.795090   4.949368   4.289649
    18  H    4.105038   3.768990   2.605023   4.294219   4.949344
                   16         17         18
    16  H    0.000000
    17  H    2.480724   0.000000
    18  H    4.286330   2.463803   0.000000
 Stoichiometry    C8H8O2
 Framework group  C1[X(C8H8O2)]
 Deg. of freedom    48
 Full point group                 C1      NOp   1
 RotChk:  IX=0 Diff= 2.00D-02
 Largest Abelian subgroup         C1      NOp   1
 Largest concise Abelian subgroup C1      NOp   1
                         Standard orientation:                         
 ---------------------------------------------------------------------
 Center     Atomic      Atomic             Coordinates (Angstroms)
 Number     Number       Type             X           Y           Z
 ---------------------------------------------------------------------
      1          8           0        2.142913   -0.946800   -1.080604
      2          6           0        2.143178   -0.159142   -0.124777
      3          8           0        3.028877    0.848150   -0.018779
      4          6           0        1.156758   -0.254052    0.996696
      5          6           0       -0.261152   -0.091871    0.505762
      6          6           0       -1.103017   -1.206869    0.349114
      7          6           0       -2.421090   -1.048339   -0.103324
      8          6           0       -2.912638    0.229814   -0.404371
      9          6           0       -2.077830    1.347135   -0.258108
     10          6           0       -0.759952    1.186236    0.191119
     11          1           0        3.654179    0.865600   -0.769093
     12          1           0        1.301237   -1.232385    1.473825
     13          1           0        1.375460    0.506830    1.760336
     14          1           0       -0.736140   -2.191908    0.572958
     15          1           0       -3.053694   -1.908801   -0.220381
     16          1           0       -3.924790    0.352924   -0.743543
     17          1           0       -2.447251    2.329274   -0.488768
     18          1           0       -0.128864    2.050192    0.297054
 ---------------------------------------------------------------------
 Rotational constants (GHZ):           3.0891285           0.7998811           0.7176506
 Leave Link  202 at Mon Feb 22 21:23:12 2021, MaxMem=   104857600 cpu:               0.8 elap:               0.1
 (Enter /sw/arch/RedHatEnterpriseServer7/EB_production/2019/software/Gaussian/g16.c01/l301.exe)
 Standard basis: TZVP (5D, 7F)
 Ernie: Thresh=  0.10000D-02 Tol=  0.10000D-05 Strict=F.
 There are   248 symmetry adapted cartesian basis functions of A   symmetry.
 There are   238 symmetry adapted basis functions of A   symmetry.
   238 basis functions,   414 primitive gaussians,   248 cartesian basis functions
    36 alpha electrons       36 beta electrons
       nuclear repulsion energy       482.8736812630 Hartrees.
 IExCor=  404 DFT=T Ex=B Corr=P86 ExCW=0 ScaHFX=  0.000000
 ScaDFX=  1.000000  1.000000  1.000000  1.000000 ScalE2=  1.000000  1.000000
 IRadAn=      5 IRanWt=     -1 IRanGd=            0 ICorTp=0 IEmpDi=131
 NAtoms=   18 NActive=   18 NUniq=   18 SFac= 1.00D+00 NAtFMM=   60 NAOKFM=F Big=F
 Integral buffers will be    131072 words long.
 Raffenetti 2 integral format.
 Two-electron integral symmetry is turned on.
 R6Disp:  Grimme-D3 Dispersion energy=       -0.0143936416 Hartrees.
 Nuclear repulsion after empirical dispersion term =      482.8592876214 Hartrees.
 ------------------------------------------------------------------------------
 Polarizable Continuum Model (PCM)
 =================================
 Model                : PCM.
 Atomic radii         : UFF (Universal Force Field).
 Polarization charges : Total charges.
 Charge compensation  : None.
 Solution method      : On-the-fly selection.
 Cavity type          : Scaled VdW (van der Waals Surface) (Alpha=1.100).
 Cavity algorithm     : GePol (No added spheres)
                        Default sphere list used, NSphG=   18.
                        Lebedev-Laikov grids with approx.  5.0 points / Ang**2.
                        Smoothing algorithm: York/Karplus (Gamma=1.0000).
                        Polarization charges: spherical gaussians, with
                                              point-specific exponents (IZeta= 3).
                        Self-potential: point-specific (ISelfS= 7).
                        Self-field    : sphere-specific E.n sum rule (ISelfD= 2).
 1st derivatives      : Analytical E(r).r(x)/FMM algorithm (CHGder, D1EAlg=3).
                        Cavity 1st derivative terms included.
 Solvent              : Water, Eps=  78.355300 Eps(inf)=   1.777849
 ------------------------------------------------------------------------------
 Spheres list:
 ISph  on   Nord     Re0    Alpha      Xe            Ye            Ze
    1   O      1    1.7500  1.100      2.142913     -0.946800     -1.080604
    2   C      2    1.9255  1.100      2.143178     -0.159142     -0.124777
    3   O      3    1.7500  1.100      3.028877      0.848150     -0.018779
    4   C      4    1.9255  1.100      1.156758     -0.254052      0.996696
    5   C      5    1.9255  1.100     -0.261152     -0.091871      0.505762
    6   C      6    1.9255  1.100     -1.103017     -1.206869      0.349114
    7   C      7    1.9255  1.100     -2.421090     -1.048339     -0.103324
    8   C      8    1.9255  1.100     -2.912638      0.229814     -0.404371
    9   C      9    1.9255  1.100     -2.077830      1.347135     -0.258108
   10   C     10    1.9255  1.100     -0.759952      1.186236      0.191119
   11   H     11    1.4430  1.100      3.654179      0.865600     -0.769093
   12   H     12    1.4430  1.100      1.301237     -1.232385      1.473825
   13   H     13    1.4430  1.100      1.375460      0.506830      1.760336
   14   H     14    1.4430  1.100     -0.736140     -2.191908      0.572958
   15   H     15    1.4430  1.100     -3.053694     -1.908801     -0.220381
   16   H     16    1.4430  1.100     -3.924790      0.352924     -0.743543
   17   H     17    1.4430  1.100     -2.447251      2.329274     -0.488768
   18   H     18    1.4430  1.100     -0.128864      2.050192      0.297054
 ------------------------------------------------------------------------------
 GePol: Number of generator spheres                  =      18
 GePol: Total number of spheres                      =      18
 GePol: Number of exposed spheres                    =      18 (100.00%)
 GePol: Number of points                             =    1578
 GePol: Average weight of points                     =       0.13
 GePol: Minimum weight of points                     =   0.90D-10
 GePol: Maximum weight of points                     =    0.20577
 GePol: Number of points with low weight             =     129
 GePol: Fraction of low-weight points (<1% of avg)   =       8.17%
 GePol: Cavity surface area                          =    204.748 Ang**2
 GePol: Cavity volume                                =    201.808 Ang**3
 Leave Link  301 at Mon Feb 22 21:23:12 2021, MaxMem=   104857600 cpu:               2.1 elap:               0.1
 (Enter /sw/arch/RedHatEnterpriseServer7/EB_production/2019/software/Gaussian/g16.c01/l302.exe)
 NPDir=0 NMtPBC=     1 NCelOv=     1 NCel=       1 NClECP=     1 NCelD=      1
         NCelK=      1 NCelE2=     1 NClLst=     1 CellRange=     0.0.
 One-electron integrals computed using PRISM.
 One-electron integral symmetry used in STVInt
 PrsmSu:  requested number of processors reduced to:  29 ShMem   1 Linda.
 NBasis=   238 RedAO= T EigKep=  9.71D-06  NBF=   238
 NBsUse=   238 1.00D-06 EigRej= -1.00D+00 NBFU=   238
 Precomputing XC quadrature grid using
 IXCGrd= 4 IRadAn=           5 IRanWt=          -1 IRanGd=           0 AccXCQ= 0.00D+00.
 Generated NRdTot=       0 NPtTot=           0 NUsed=           0 NTot=          32
 NSgBfM=   245   245   245   245   245 MxSgAt=    18 MxSgA2=    18.
 Leave Link  302 at Mon Feb 22 21:23:12 2021, MaxMem=   104857600 cpu:               6.2 elap:               0.2
 (Enter /sw/arch/RedHatEnterpriseServer7/EB_production/2019/software/Gaussian/g16.c01/l303.exe)
 DipDrv:  MaxL=1.
 Leave Link  303 at Mon Feb 22 21:23:12 2021, MaxMem=   104857600 cpu:               1.7 elap:               0.1
 (Enter /sw/arch/RedHatEnterpriseServer7/EB_production/2019/software/Gaussian/g16.c01/l401.exe)
 Initial guess from the checkpoint file:  "WLJVXDMOQOGPHL-UHFFFAOYSA-N.chk"
 B after Tr=    -0.000000    0.000000    0.000000
         Rot=    0.999989    0.004406   -0.000086   -0.001847 Ang=   0.55 deg.
 Guess basis will be translated and rotated to current coordinates.
 JPrj=2 DoOrth=T DoCkMO=T.
 Generating alternative initial guess.
 ExpMin= 9.52D-02 ExpMax= 2.70D+04 ExpMxC= 9.22D+02 IAcc=3 IRadAn=         5 AccDes= 0.00D+00
 Harris functional with IExCor=  404 and IRadAn=       5 diagonalized for initial guess.
 HarFok:  IExCor=  404 AccDes= 0.00D+00 IRadAn=         5 IDoV= 1 UseB2=F ITyADJ=14
 ICtDFT=  3500011 ScaDFX=  1.000000  1.000000  1.000000  1.000000
 FoFCou: FMM=F IPFlag=           0 FMFlag=      100000 FMFlg1=           0
         NFxFlg=           0 DoJE=T BraDBF=F KetDBF=T FulRan=T
         wScrn=  0.000000 ICntrl=       500 IOpCl=  0 I1Cent=   200000004 NGrid=           0
[...]
 Polarizable Continuum Model (PCM)
 =================================
 Model                : C-PCM.
 Atomic radii         : Klamt.
 XCosmo               : -1.000 (infinite dielectric limit)
 Polarization charges : Electronic and nuclear charges.
 Charge compensation  : Type 3 (Electronic density weighted correction).
 Solution method      : On-the-fly selection.
 Cavity type          : VdW (van der Waals Surface) (Alpha=1.000).
 Cavity algorithm     : GePol (No added spheres)
                        Default sphere list used, NSphG=   18.
                        Tesserae with average area of 0.200 Ang**2.
                        Smoothing algorithm: None.
                        Polarization charges: point-like.
                        Self-potential: constant (ISelfS= 1).
                        Self-field    : global E.n sum rule (ISelfD= 3).
 Solvent              : Water, Eps=  78.355300 Eps(inf)=   1.777849
 ------------------------------------------------------------------------------
 Spheres list:
 ISph  on   Nord     Re0    Alpha      Xe            Ye            Ze
    1   O      1    1.7200  1.000      1.862585     -0.109471     -1.410228
    2   C      2    2.0000  1.000      2.146409     -0.015513     -0.228455
    3   O      3    1.7200  1.000      3.430781      0.037924      0.224127
    4   C      4    2.0000  1.000      1.167569      0.055682      0.934615
    5   C      5    2.0000  1.000     -0.279168      0.029824      0.506756
    6   C      6    2.0000  1.000     -0.952980     -1.190684      0.340717
    7   C      7    2.0000  1.000     -2.287879     -1.217243     -0.078999
    8   C      8    2.0000  1.000     -2.966654     -0.019637     -0.337826
    9   C      9    2.0000  1.000     -2.302850      1.202613     -0.173677
   10   C     10    2.0000  1.000     -0.967615      1.225167      0.245884
   11   H     11    1.3000  1.000      4.022719     -0.014195     -0.557041
   12   H     12    1.3000  1.000      1.402876     -0.786132      1.605801
   13   H     13    1.3000  1.000      1.402557      0.969887      1.502745
   14   H     14    1.3000  1.000     -0.427431     -2.127688      0.542939
   15   H     15    1.3000  1.000     -2.799678     -2.174359     -0.201318
   16   H     16    1.3000  1.000     -4.009084     -0.038798     -0.662790
   17   H     17    1.3000  1.000     -2.826279      2.140968     -0.369806
   18   H     18    1.3000  1.000     -0.453599      2.181431      0.374196
 ------------------------------------------------------------------------------
 One-electron integrals computed using PRISM.
 PrsmSu:  requested number of processors reduced to:  29 ShMem   1 Linda.
 NBasis=   238 RedAO= T EigKep=  9.64D-06  NBF=   238
 NBsUse=   238 1.00D-06 EigRej= -1.00D+00 NBFU=   238
 Initial guess from the checkpoint file:  "WLJVXDMOQOGPHL-UHFFFAOYSA-N.chk"
 B after Tr=    -0.000000    0.000000    0.000000
         Rot=    1.000000    0.000000   -0.000000   -0.000000 Ang=   0.00 deg.
 Requested convergence on RMS density matrix=1.00D-08 within 128 cycles.
 Requested convergence on MAX density matrix=1.00D-06.
 Requested convergence on             energy=1.00D-06.
 No special actions if energy rises.
 Inv3:  Mode=1 IEnd=     5179788.
 Iteration    1 A*A^-1 deviation from unit magnitude is 3.00D-15 for    721.
 Iteration    1 A*A^-1 deviation from orthogonality  is 4.88D-15 for   1112   1022.
 Iteration    1 A^-1*A deviation from unit magnitude is 5.33D-15 for    251.
 Iteration    1 A^-1*A deviation from orthogonality  is 5.89D-15 for    810    251.
 Error on nuclear    polarization charges =  0.01709
 Error on electronic polarization charges = -0.04595
 SCF Done:  E(RB-P86) =  -460.309296486     A.U. after   11 cycles
            NFock= 11  Conv=0.55D-08     -V/T= 2.0046
 --------------------------------------------------------------------
 Variational C-PCM results
 =========================
 <psi(f)|   H    |psi(f)>                     (a.u.) =    -460.288848
 <psi(f)|H+V(f)/2|psi(f)>                     (a.u.) =    -460.309296
 Total free energy in solution:
 - with all non electrostatic terms           (a.u.) =    -460.296953
 --------------------------------------------------------------------
 (Polarized solute)-Solvent               (kcal/mol) =     -12.83
 --------------------------------------------------------------------
 Cavitation energy                        (kcal/mol) =      22.67
 Dispersion energy                        (kcal/mol) =     -16.27
 Repulsion energy                         (kcal/mol) =       1.35
 Total non electrostatic                  (kcal/mol) =       7.75
 --------------------------------------------------------------------
 Partition over spheres:
 Sphere  on Atom  Surface  Charge   GEl     GCav    GDR
    1      O1      19.44   0.235   -4.27    2.42   -1.54
    2      C2      10.62  -0.036   -0.21    1.25   -0.63
    3      O3      15.86   0.089   -0.61    1.97   -1.45
    4      C4       8.40  -0.033   -0.27    0.99   -0.42
    5      C5       4.05   0.021   -0.26    0.48   -0.19
    6      C6      12.93   0.033   -0.44    1.52   -0.72
    7      C7      14.00   0.037   -0.35    1.64   -1.03
    8      C8      14.05   0.038   -0.34    1.65   -1.02
    9      C9      14.01   0.037   -0.34    1.65   -1.03
   10      C10     13.00   0.033   -0.40    1.53   -0.74
   11      H11      8.47  -0.153   -2.80    1.20   -0.89
   12      H12      6.55  -0.049   -0.54    0.92   -0.70
   13      H13      6.54  -0.050   -0.55    0.92   -0.69
   14      H14      6.45  -0.041   -0.33    0.91   -0.74
   15      H15      6.44  -0.041   -0.26    0.91   -0.81
   16      H16      6.44  -0.041   -0.26    0.91   -0.79
   17      H17      6.44  -0.041   -0.27    0.91   -0.80
   18      H18      6.45  -0.041   -0.34    0.91   -0.74
 --------------------------------------------------------------------
 - cavitation energy not included in the total energy.
 - dispersion energy not included in the total energy.
 - repulsion  energy not included in the total energy.
 After PCM corrections, the energy is  -460.309296486     a.u.
 --------------------------------------------------------------------
 Writing COSMO formatted file "WLJVXDMOQOGPHL-UHFFFAOYSA-N.cosmo"
 Recomputed dielectric energy= -0.020533 old= -0.020449 diff=-8.44D-05

 **********************************************************************

            Population analysis using the SCF Density.

 **********************************************************************

 Orbital symmetries:
       Occupied  (A) (A) (A) (A) (A) (A) (A) (A) (A) (A) (A) (A)
                 (A) (A) (A) (A) (A) (A) (A) (A) (A) (A) (A) (A)
                 (A) (A) (A) (A) (A) (A) (A) (A) (A) (A) (A) (A)
       Virtual   (A) (A) (A) (A) (A) (A) (A) (A) (A) (A) (A) (A)
                 (A) (A) (A) (A) (A) (A) (A) (A) (A) (A) (A) (A)
                 (A) (A) (A) (A) (A) (A) (A) (A) (A) (A) (A) (A)
                 (A) (A) (A) (A) (A) (A) (A) (A) (A) (A) (A) (A)
                 (A) (A) (A) (A) (A) (A) (A) (A) (A) (A) (A) (A)
                 (A) (A) (A) (A) (A) (A) (A) (A) (A) (A) (A) (A)
                 (A) (A) (A) (A) (A) (A) (A) (A) (A) (A) (A) (A)
                 (A) (A) (A) (A) (A) (A) (A) (A) (A) (A) (A) (A)
                 (A) (A) (A) (A) (A) (A) (A) (A) (A) (A) (A) (A)
                 (A) (A) (A) (A) (A) (A) (A) (A) (A) (A) (A) (A)
                 (A) (A) (A) (A) (A) (A) (A) (A) (A) (A) (A) (A)
                 (A) (A) (A) (A) (A) (A) (A) (A) (A) (A) (A) (A)
                 (A) (A) (A) (A) (A) (A) (A) (A) (A) (A) (A) (A)
                 (A) (A) (A) (A) (A) (A) (A) (A) (A) (A) (A) (A)
                 (A) (A) (A) (A) (A) (A) (A) (A) (A) (A) (A) (A)
                 (A) (A) (A) (A) (A) (A) (A) (A) (A) (A) (A) (A)
                 (A) (A) (A) (A) (A) (A) (A) (A) (A) (A)
 The electronic state is 1-A.
 Alpha  occ. eigenvalues --  -18.82176 -18.77322 -10.03735  -9.91986  -9.91818
 Alpha  occ. eigenvalues --   -9.90555  -9.90551  -9.90492  -9.90488  -9.90455
 Alpha  occ. eigenvalues --   -1.02449  -0.94315  -0.78935  -0.72320  -0.68099
 Alpha  occ. eigenvalues --   -0.65708  -0.57119  -0.55194  -0.52458  -0.46501
 Alpha  occ. eigenvalues --   -0.45491  -0.43684  -0.43587  -0.40803  -0.40318
 Alpha  occ. eigenvalues --   -0.37702  -0.37175  -0.36307  -0.34229  -0.33169
 Alpha  occ. eigenvalues --   -0.30797  -0.30250  -0.29540  -0.25294  -0.23753
 Alpha  occ. eigenvalues --   -0.23269
 Alpha virt. eigenvalues --   -0.05482  -0.05062  -0.04267   0.02633   0.03732
 Alpha virt. eigenvalues --    0.05946   0.06858   0.08225   0.09372   0.09933
 Alpha virt. eigenvalues --    0.10701   0.12054   0.12342   0.13393   0.14591
 Alpha virt. eigenvalues --    0.16443   0.17533   0.18942   0.19557   0.20328
 Alpha virt. eigenvalues --    0.21120   0.22003   0.22112   0.22612   0.24097
 Alpha virt. eigenvalues --    0.25364   0.25639   0.27226   0.28237   0.29750
 Alpha virt. eigenvalues --    0.31879   0.31920   0.32374   0.32852   0.33100
 Alpha virt. eigenvalues --    0.34298   0.35404   0.36006   0.37180   0.38520
 Alpha virt. eigenvalues --    0.39965   0.40320   0.40827   0.40943   0.42576
 Alpha virt. eigenvalues --    0.43283   0.43314   0.44998   0.46277   0.46925
 Alpha virt. eigenvalues --    0.48002   0.48216   0.49053   0.49919   0.52675
 Alpha virt. eigenvalues --    0.53938   0.54523   0.57796   0.60236   0.61701
 Alpha virt. eigenvalues --    0.62274   0.64398   0.65961   0.68069   0.71584
 Alpha virt. eigenvalues --    0.73286   0.77202   0.77501   0.86875   0.90717
 Alpha virt. eigenvalues --    1.08976   1.14746   1.15109   1.15998   1.17905
 Alpha virt. eigenvalues --    1.18310   1.20128   1.21777   1.22290   1.22903
 Alpha virt. eigenvalues --    1.24277   1.24523   1.25013   1.26562   1.26818
 Alpha virt. eigenvalues --    1.31363   1.31557   1.33372   1.35357   1.37520
 Alpha virt. eigenvalues --    1.37765   1.38315   1.38751   1.39433   1.39921
 Alpha virt. eigenvalues --    1.41058   1.43381   1.44602   1.44720   1.46813
 Alpha virt. eigenvalues --    1.47705   1.48101   1.50524   1.52899   1.55303
 Alpha virt. eigenvalues --    1.55459   1.56792   1.60442   1.62795   1.66178
 Alpha virt. eigenvalues --    1.69433   1.69606   1.71746   1.71994   1.74639
 Alpha virt. eigenvalues --    1.77073   1.79687   1.79810   1.80715   1.82844
 Alpha virt. eigenvalues --    1.83180   1.84615   1.89202   1.89734   1.91913
 Alpha virt. eigenvalues --    1.93449   1.93737   1.94267   2.00688   2.02932
 Alpha virt. eigenvalues --    2.06052   2.11164   2.11270   2.17491   2.20367
 Alpha virt. eigenvalues --    2.20600   2.22710   2.22890   2.25613   2.25953
 Alpha virt. eigenvalues --    2.27973   2.28051   2.34933   2.39265   2.39849
 Alpha virt. eigenvalues --    2.42861   2.44607   2.45291   2.46394   2.47149
 Alpha virt. eigenvalues --    2.52713   2.53094   2.53234   2.55495   2.56598
 Alpha virt. eigenvalues --    2.57358   2.57826   2.59489   2.61538   2.61845
 Alpha virt. eigenvalues --    2.63586   2.64858   2.70272   2.71978   2.73393
 Alpha virt. eigenvalues --    2.79739   2.80336   2.85161   2.85521   2.89327
 Alpha virt. eigenvalues --    2.93473   2.95496   2.98410   2.99998   3.01879
 Alpha virt. eigenvalues --    3.03973   3.04402   3.07562   3.08151   3.11129
 Alpha virt. eigenvalues --    3.18411   3.20901   3.21986   3.27479   3.31960
 Alpha virt. eigenvalues --    3.32812   3.41652   3.43331   3.67851   3.80455
 Alpha virt. eigenvalues --    4.08244   4.18353  21.04766  21.56003  21.57027
 Alpha virt. eigenvalues --   21.71089  21.79778  21.80807  21.85381  21.97538
 Alpha virt. eigenvalues --   43.04868  43.18271
          Condensed to atoms (all electrons):
               1          2          3          4          5          6
     1  O    7.959986   0.622181  -0.107988  -0.187113   0.017958   0.021012
     2  C    0.622181   4.829384   0.345338   0.028278   0.009205   0.003247
     3  O   -0.107988   0.345338   7.903451  -0.176722   0.021727   0.001410
     4  C   -0.187113   0.028278  -0.176722   6.052522   0.055348  -0.105041
     5  C    0.017958   0.009205   0.021727   0.055348   5.603276   0.216234
     6  C    0.021012   0.003247   0.001410  -0.105041   0.216234   5.336217
     7  C   -0.003321  -0.000085  -0.000069   0.017909   0.093364   0.267616
     8  C    0.001321  -0.000217   0.000016  -0.001231  -0.152227   0.059044
     9  C   -0.003033  -0.000131  -0.000062   0.018303   0.091322  -0.179309
    10  C    0.020117   0.005014   0.001606  -0.108007   0.221996   0.115956
    11  H    0.001552  -0.017610   0.284662   0.018013  -0.002208  -0.000119
    12  H    0.002579  -0.012653   0.005267   0.388604  -0.052366   0.014100
    13  H    0.002754  -0.012098   0.005229   0.390864  -0.055802   0.003573
    14  H    0.001470   0.000196   0.000138  -0.011650  -0.072726   0.446806
    15  H   -0.000018   0.000038  -0.000000  -0.000759   0.017506  -0.062839
    16  H    0.000001   0.000005   0.000000  -0.000046  -0.004167   0.016176
    17  H   -0.000015   0.000035  -0.000000  -0.000759   0.017560  -0.002542
    18  H    0.001295   0.000165   0.000124  -0.012294  -0.071915   0.019598
               7          8          9         10         11         12
     1  O   -0.003321   0.001321  -0.003033   0.020117   0.001552   0.002579
     2  C   -0.000085  -0.000217  -0.000131   0.005014  -0.017610  -0.012653
     3  O   -0.000069   0.000016  -0.000062   0.001606   0.284662   0.005267
     4  C    0.017909  -0.001231   0.018303  -0.108007   0.018013   0.388604
     5  C    0.093364  -0.152227   0.091322   0.221996  -0.002208  -0.052366
     6  C    0.267616   0.059044  -0.179309   0.115956  -0.000119   0.014100
     7  C    5.232917   0.307272   0.060692  -0.177272  -0.000002  -0.000758
     8  C    0.307272   5.242296   0.308668   0.056231  -0.000001   0.000278
     9  C    0.060692   0.308668   5.227046   0.276238  -0.000002  -0.000586
    10  C   -0.177272   0.056231   0.276238   5.323902  -0.000132   0.003122
    11  H   -0.000002  -0.000001  -0.000002  -0.000132   0.383570  -0.000455
    12  H   -0.000758   0.000278  -0.000586   0.003122  -0.000455   0.441207
    13  H   -0.000584   0.000279  -0.000712   0.014198  -0.000411  -0.007326
    14  H   -0.060139   0.015836  -0.004947   0.019377  -0.000013   0.001543
    15  H    0.437224  -0.062411   0.014665  -0.002556   0.000000  -0.000028
    16  H   -0.058852   0.433400  -0.058740   0.016188  -0.000000   0.000000
    17  H    0.014608  -0.062370   0.437146  -0.062807   0.000000   0.000012
    18  H   -0.004968   0.015827  -0.059415   0.445227  -0.000012   0.000302
              13         14         15         16         17         18
     1  O    0.002754   0.001470  -0.000018   0.000001  -0.000015   0.001295
     2  C   -0.012098   0.000196   0.000038   0.000005   0.000035   0.000165
     3  O    0.005229   0.000138  -0.000000   0.000000  -0.000000   0.000124
     4  C    0.390864  -0.011650  -0.000759  -0.000046  -0.000759  -0.012294
     5  C   -0.055802  -0.072726   0.017506  -0.004167   0.017560  -0.071915
     6  C    0.003573   0.446806  -0.062839   0.016176  -0.002542   0.019598
     7  C   -0.000584  -0.060139   0.437224  -0.058852   0.014608  -0.004968
     8  C    0.000279   0.015836  -0.062411   0.433400  -0.062370   0.015827
     9  C   -0.000712  -0.004947   0.014665  -0.058740   0.437146  -0.059415
    10  C    0.014198   0.019377  -0.002556   0.016188  -0.062807   0.445227
    11  H   -0.000411  -0.000013   0.000000  -0.000000   0.000000  -0.000012
    12  H   -0.007326   0.001543  -0.000028   0.000000   0.000012   0.000302
    13  H    0.441907   0.000304   0.000011  -0.000000  -0.000030   0.001783
    14  H    0.000304   0.522685  -0.006592  -0.000146   0.000017  -0.000057
    15  H    0.000011  -0.006592   0.524506  -0.006647  -0.000186   0.000017
    16  H   -0.000000  -0.000146  -0.006647   0.518354  -0.006649  -0.000147
    17  H   -0.000030   0.000017  -0.000186  -0.006649   0.524633  -0.006575
    18  H    0.001783  -0.000057   0.000017  -0.000147  -0.006575   0.522888
 Mulliken charges:
               1
     1  O   -0.350740
     2  C    0.199709
     3  O   -0.284125
     4  C   -0.366222
     5  C    0.045915
     6  C   -0.171137
     7  C   -0.125552
     8  C   -0.162013
     9  C   -0.127142
    10  C   -0.168397
    11  H    0.333166
    12  H    0.217158
    13  H    0.216061
    14  H    0.147897
    15  H    0.148072
    16  H    0.151269
    17  H    0.147923
    18  H    0.148158
 Sum of Mulliken charges =  -0.00000
 Mulliken charges with hydrogens summed into heavy atoms:
               1
     1  O   -0.350740
     2  C    0.199709
     3  O    0.049041
     4  C    0.066997
     5  C    0.045915
     6  C   -0.023240
     7  C    0.022521
     8  C   -0.010744
     9  C    0.020780
    10  C   -0.020239
 Electronic spatial extent (au):  <R**2>=           1637.7488
 Charge=             -0.0000 electrons
 Dipole moment (field-independent basis, Debye):
    X=              0.9269    Y=              0.1585    Z=              2.0993  Tot=              2.3003
 Quadrupole moment (field-independent basis, Debye-Ang):
   XX=            -46.1447   YY=            -52.1124   ZZ=            -64.8963
   XY=              0.1113   XZ=              2.1322   YZ=             -0.7244
 Traceless Quadrupole moment (field-independent basis, Debye-Ang):
   XX=              8.2397   YY=              2.2721   ZZ=            -10.5118
   XY=              0.1113   XZ=              2.1322   YZ=             -0.7244
 Octapole moment (field-independent basis, Debye-Ang**2):
  XXX=             49.9740  YYY=              0.1234  ZZZ=              6.3814  XYY=              1.6633
  XXY=             -1.2697  XXZ=            -26.0453  XZZ=              9.0712  YZZ=              0.4760
  YYZ=              0.7538  XYZ=             -0.2345
 Hexadecapole moment (field-independent basis, Debye-Ang**3):
 XXXX=          -1295.4352 YYYY=           -290.8853 ZZZZ=           -222.6848 XXXY=             -3.8609
 XXXZ=            -60.7042 YYYX=              0.5836 YYYZ=             -1.3102 ZZZX=             10.9418
 ZZZY=             -0.6412 XXYY=           -299.9298 XXZZ=           -325.5952 YYZZ=            -91.9212
 XXYZ=             -2.8137 YYXZ=              4.8401 ZZXY=              0.7013
 N-N= 4.811043058726D+02 E-N=-2.036786281816D+03  KE= 4.582224383763D+02
 Unable to Open any file for archive entry.
 1\1\GINC-TCN1656\SP\RBP86\TZVP\C8H8O2\ELENAA\22-Feb-2021\0\\# BP86/TZV
 P SCRF=COSMORS geom=CHECKPOINT guess=CHECKPOINT\\COSMO-file for #WLJVX
 DMOQOGPHL-UHFFFAOYSA-N\\0,1\O,0,-3.7059666248,1.5916689039,1.250826194
 9\C,0,-2.7050352823,0.9607519008,1.5441728319\O,0,-2.5613325935,0.3072
 798805,2.7314482689\C,0,-1.4626403027,0.7828011327,0.6835242138\C,0,-1
 .5604931684,1.4578771588,-0.6623866437\C,0,-1.171631813,2.7978257199,-
 0.8190933285\C,0,-1.2839889473,3.4326221214,-2.0613623421\C,0,-1.78765
 66191,2.7322800538,-3.1649133934\C,0,-2.1768513905,1.3949399561,-3.018
 1990455\C,0,-2.0633663385,0.7635305376,-1.7740791323\H,0,-3.3813172794
 ,0.4526031104,3.2509060859\H,0,-0.6097695921,1.1685923735,1.2651492674
 \H,0,-1.2914386797,-0.3004459875,0.5785081403\H,0,-0.7767254361,3.3477
 453549,0.039225147\H,0,-0.9750791377,4.4747657689,-2.1685196272\H,0,-1
 .8733495407,3.2255646179,-4.135457135\H,0,-2.5670166048,0.8408012974,-
 3.8747361958\H,0,-2.3669106493,-0.280933901,-1.6642033067\\Version=ES6
 4L-G16RevC.01\State=1-A\HF=-460.3092965\RMSD=5.523e-09\Dipole=0.667559
 8,-0.494252,0.3593248\Quadrupole=-6.4408998,0.893277,5.5476229,3.67345
 75,0.1888827,-1.8655612\PG=C01 [X(C8H8O2)]\\@
 The archive entry for this job was punched.


 When cryptography is outlawed, bayl bhgynjf jvyy unir cevinpl.
 Job cpu time:       0 days  0 hours  5 minutes 25.3 seconds.
 Elapsed time:       0 days  0 hours  0 minutes 10.7 seconds.
 File lengths (MBytes):  RWF=     50 Int=      0 D2E=      0 Chk=      9 Scr=      1
 Normal termination of Gaussian 16 at Mon Feb 22 21:32:20 2021.
