 Entering Gaussian System, Link 0=g16
 Input=WLJVNTCWHIRURA-UHFFFAOYSA-N.gjf
 Output=WLJVNTCWHIRURA-UHFFFAOYSA-N.log
 Initial command:
 /sw/arch/RedHatEnterpriseServer7/EB_production/2019/software/Gaussian/g16.c01/l1.exe "/scratch-local/elenaa.9715287/Gau-4830.inp" -scrdir="/scratch-local/elenaa.9715287/"
 Entering Link 1 = /sw/arch/RedHatEnterpriseServer7/EB_production/2019/software/Gaussian/g16.c01/l1.exe PID=      4831.
  
 Copyright (c) 1988-2019, Gaussian, Inc.  All Rights Reserved.
  
 This is part of the Gaussian(R) 16 program.  It is based on
 the Gaussian(R) 09 system (copyright 2009, Gaussian, Inc.),
 the Gaussian(R) 03 system (copyright 2003, Gaussian, Inc.),
 the Gaussian(R) 98 system (copyright 1998, Gaussian, Inc.),
 the Gaussian(R) 94 system (copyright 1995, Gaussian, Inc.),
 the Gaussian 92(TM) system (copyright 1992, Gaussian, Inc.),
 the Gaussian 90(TM) system (copyright 1990, Gaussian, Inc.),
 the Gaussian 88(TM) system (copyright 1988, Gaussian, Inc.),
 the Gaussian 86(TM) system (copyright 1986, Carnegie Mellon
 University), and the Gaussian 82(TM) system (copyright 1983,
 Carnegie Mellon University). Gaussian is a federally registered
 trademark of Gaussian, Inc.
  
 This software contains proprietary and confidential information,
 including trade secrets, belonging to Gaussian, Inc.
  
 This software is provided under written license and may be
 used, copied, transmitted, or stored only in accord with that
 written license.
  
 The following legend is applicable only to US Government
 contracts under FAR:
  
                    RESTRICTED RIGHTS LEGEND
  
 Use, reproduction and disclosure by the US Government is
 subject to restrictions as set forth in subparagraphs (a)
 and (c) of the Commercial Computer Software - Restricted
 Rights clause in FAR 52.227-19.
  
 Gaussian, Inc.
 340 Quinnipiac St., Bldg. 40, Wallingford CT 06492
  
  
 ---------------------------------------------------------------
 Warning -- This program may not be used in any manner that
 competes with the business of Gaussian, Inc. or will provide
 assistance to any competitor of Gaussian, Inc.  The licensee
 of this program is prohibited from giving any competitor of
 Gaussian, Inc. access to this program.  By using this program,
 the user acknowledges that Gaussian, Inc. is engaged in the
 business of creating and licensing software in the field of
 computational chemistry and represents and warrants to the
 licensee that it is not a competitor of Gaussian, Inc. and that
 it will not use this program in any manner prohibited above.
 ---------------------------------------------------------------
  

 Cite this work as:
 Gaussian 16, Revision C.01,
 M. J. Frisch, G. W. Trucks, H. B. Schlegel, G. E. Scuseria, 
 M. A. Robb, J. R. Cheeseman, G. Scalmani, V. Barone, 
 G. A. Petersson, H. Nakatsuji, X. Li, M. Caricato, A. V. Marenich, 
 J. Bloino, B. G. Janesko, R. Gomperts, B. Mennucci, H. P. Hratchian, 
 J. V. Ortiz, A. F. Izmaylov, J. L. Sonnenberg, D. Williams-Young, 
 F. Ding, F. Lipparini, F. Egidi, J. Goings, B. Peng, A. Petrone, 
 T. Henderson, D. Ranasinghe, V. G. Zakrzewski, J. Gao, N. Rega, 
 G. Zheng, W. Liang, M. Hada, M. Ehara, K. Toyota, R. Fukuda, 
 J. Hasegawa, M. Ishida, T. Nakajima, Y. Honda, O. Kitao, H. Nakai, 
 T. Vreven, K. Throssell, J. A. Montgomery, Jr., J. E. Peralta, 
 F. Ogliaro, M. J. Bearpark, J. J. Heyd, E. N. Brothers, K. N. Kudin, 
 V. N. Staroverov, T. A. Keith, R. Kobayashi, J. Normand, 
 K. Raghavachari, A. P. Rendell, J. C. Burant, S. S. Iyengar, 
 J. Tomasi, M. Cossi, J. M. Millam, M. Klene, C. Adamo, R. Cammi, 
 J. W. Ochterski, R. L. Martin, K. Morokuma, O. Farkas, 
 J. B. Foresman, and D. J. Fox, Gaussian, Inc., Wallingford CT, 2019.
 
 ******************************************
 Gaussian 16:  ES64L-G16RevC.01  3-Jul-2019
                22-Feb-2021 
 ******************************************
 %chk=WLJVNTCWHIRURA-UHFFFAOYSA-N.chk
 %NProcShared=32
 Will use up to   32 processors via shared memory.
 -------------------------------------------------------------
 #P BP86/TZVP EmpiricalDispersion=GD3 SCRF=(Solvent=Water) Opt
 -------------------------------------------------------------
 1/18=20,19=15,26=3,38=1/1,3;
 2/9=110,12=2,17=6,18=5,40=1/2;
 3/5=19,7=101,11=2,25=1,30=1,70=2201,71=1,72=1,74=404,124=31/1,2,3;
 4//1;
 5/5=2,38=5,53=1/2;
 6/7=2,8=2,9=2,10=2,28=1/1;
 7//1,2,3,16;
 1/18=20,19=15,26=3/3(2);
 2/9=110/2;
 99//99;
 2/9=110/2;
 3/5=19,7=101,11=2,25=1,30=1,70=2205,71=1,72=1,74=404,124=31/1,2,3;
 4/5=5,16=3,69=1/1;
 5/5=2,38=5,53=1/2;
 7//1,2,3,16;
 1/18=20,19=15,26=3/3(-5);
 2/9=110/2;
 6/7=2,8=2,9=2,10=2,19=2,28=1/1;
 99/9=1/99;
 Leave Link    1 at Mon Feb 22 21:22:55 2021, MaxMem=           0 cpu:               2.1 elap:               0.1
 (Enter /sw/arch/RedHatEnterpriseServer7/EB_production/2019/software/Gaussian/g16.c01/l101.exe)
 -------------------------------------
 Particle #WLJVNTCWHIRURA-UHFFFAOYSA-N
 -------------------------------------
 Symbolic Z-matrix:
 Charge =  0 Multiplicity = 1
 O                    -0.34399   2.84247  -0.61626 
 C                    -0.99843   2.12587  -1.40709 
 O                    -0.77876   2.25525  -2.73677 
 C                    -1.98832   1.1549   -0.90261 
 C                    -1.32303   0.02195  -0.07802 
 C                    -2.33625  -1.04691   0.4134 
 C                    -1.64377  -2.17278   1.22792 
 C                    -2.63586  -3.25032   1.73857 
 C                    -1.96351  -4.27686   2.55792 
 O                    -1.11305  -5.04376   2.05214 
 O                    -2.25361  -4.40388   3.87425 
 H                    -0.11239   2.89302  -3.068 
 H                    -2.71651   1.68598  -0.28354 
 H                    -2.52151   0.71505  -1.74931 
 H                    -0.56556  -0.46857  -0.69678 
 H                    -0.82239   0.4591    0.79205 
 H                    -2.8399   -1.4892   -0.45054 
 H                    -3.09107  -0.56254   1.03897 
 H                    -0.88917  -2.65188   0.59562 
 H                    -1.13477  -1.72459   2.08658 
 H                    -3.41197  -2.76672   2.33726 
 H                    -3.12017  -3.74087   0.88983 
 H                    -1.79691  -5.0792    4.41821 
 
 ITRead=  0  0  0  0  0  0  0  0  0  0  0  0  0  0  0  0  0  0  0  0
 ITRead=  0  0  0
 MicOpt= -1 -1 -1 -1 -1 -1 -1 -1 -1 -1 -1 -1 -1 -1 -1 -1 -1 -1 -1 -1
 MicOpt= -1 -1 -1
 NAtoms=     23 NQM=       23 NQMF=       0 NMMI=      0 NMMIF=      0
                NMic=       0 NMicF=      0.
                    Isotopes and Nuclear Properties:
 (Nuclear quadrupole moments (NQMom) in fm**2, nuclear magnetic moments (NMagM)
  in nuclear magnetons)

  Atom         1           2           3           4           5           6           7           8           9          10
 IAtWgt=          16          12          16          12          12          12          12          12          12          16
 AtmWgt=  15.9949146  12.0000000  15.9949146  12.0000000  12.0000000  12.0000000  12.0000000  12.0000000  12.0000000  15.9949146
 NucSpn=           0           0           0           0           0           0           0           0           0           0
 AtZEff=  -0.0000000  -0.0000000  -0.0000000  -0.0000000  -0.0000000  -0.0000000  -0.0000000  -0.0000000  -0.0000000  -0.0000000
 NQMom=    0.0000000   0.0000000   0.0000000   0.0000000   0.0000000   0.0000000   0.0000000   0.0000000   0.0000000   0.0000000
 NMagM=    0.0000000   0.0000000   0.0000000   0.0000000   0.0000000   0.0000000   0.0000000   0.0000000   0.0000000   0.0000000
 AtZNuc=   8.0000000   6.0000000   8.0000000   6.0000000   6.0000000   6.0000000   6.0000000   6.0000000   6.0000000   8.0000000

  Atom        11          12          13          14          15          16          17          18          19          20
 IAtWgt=          16           1           1           1           1           1           1           1           1           1
 AtmWgt=  15.9949146   1.0078250   1.0078250   1.0078250   1.0078250   1.0078250   1.0078250   1.0078250   1.0078250   1.0078250
 NucSpn=           0           1           1           1           1           1           1           1           1           1
 AtZEff=  -0.0000000  -0.0000000  -0.0000000  -0.0000000  -0.0000000  -0.0000000  -0.0000000  -0.0000000  -0.0000000  -0.0000000
 NQMom=    0.0000000   0.0000000   0.0000000   0.0000000   0.0000000   0.0000000   0.0000000   0.0000000   0.0000000   0.0000000
 NMagM=    0.0000000   2.7928460   2.7928460   2.7928460   2.7928460   2.7928460   2.7928460   2.7928460   2.7928460   2.7928460
 AtZNuc=   8.0000000   1.0000000   1.0000000   1.0000000   1.0000000   1.0000000   1.0000000   1.0000000   1.0000000   1.0000000

  Atom        21          22          23
 IAtWgt=           1           1           1
 AtmWgt=   1.0078250   1.0078250   1.0078250
 NucSpn=           1           1           1
 AtZEff=  -0.0000000  -0.0000000  -0.0000000
 NQMom=    0.0000000   0.0000000   0.0000000
 NMagM=    2.7928460   2.7928460   2.7928460
 AtZNuc=   1.0000000   1.0000000   1.0000000
 Leave Link  101 at Mon Feb 22 21:22:55 2021, MaxMem=   104857600 cpu:               3.0 elap:               0.1
 (Enter /sw/arch/RedHatEnterpriseServer7/EB_production/2019/software/Gaussian/g16.c01/l103.exe)

 GradGradGradGradGradGradGradGradGradGradGradGradGradGradGradGradGradGrad
 Berny optimization.
 Initialization pass.
                           ----------------------------
                           !    Initial Parameters    !
                           ! (Angstroms and Degrees)  !
 --------------------------                            --------------------------
 ! Name  Definition              Value          Derivative Info.                !
 --------------------------------------------------------------------------------
 ! R1    R(1,2)                  1.2519         estimate D2E/DX2                !
 ! R2    R(2,3)                  1.3539         estimate D2E/DX2                !
 ! R3    R(2,4)                  1.4755         estimate D2E/DX2                !
 ! R4    R(3,12)                 0.9801         estimate D2E/DX2                !
 ! R5    R(4,5)                  1.5512         estimate D2E/DX2                !
 ! R6    R(4,13)                 1.0934         estimate D2E/DX2                !
 ! R7    R(4,14)                 1.093          estimate D2E/DX2                !
 ! R8    R(5,6)                  1.5526         estimate D2E/DX2                !
 ! R9    R(5,15)                 1.0942         estimate D2E/DX2                !
 ! R10   R(5,16)                 1.0949         estimate D2E/DX2                !
 ! R11   R(6,7)                  1.5526         estimate D2E/DX2                !
 ! R12   R(6,17)                 1.0935         estimate D2E/DX2                !
 ! R13   R(6,18)                 1.0935         estimate D2E/DX2                !
 ! R14   R(7,8)                  1.5512         estimate D2E/DX2                !
 ! R15   R(7,19)                 1.0949         estimate D2E/DX2                !
 ! R16   R(7,20)                 1.0942         estimate D2E/DX2                !
 ! R17   R(8,9)                  1.4755         estimate D2E/DX2                !
 ! R18   R(8,21)                 1.093          estimate D2E/DX2                !
 ! R19   R(8,22)                 1.0934         estimate D2E/DX2                !
 ! R20   R(9,10)                 1.2519         estimate D2E/DX2                !
 ! R21   R(9,11)                 1.3539         estimate D2E/DX2                !
 ! R22   R(11,23)                0.9801         estimate D2E/DX2                !
 ! A1    A(1,2,3)              118.7436         estimate D2E/DX2                !
 ! A2    A(1,2,4)              120.7576         estimate D2E/DX2                !
 ! A3    A(3,2,4)              120.4986         estimate D2E/DX2                !
 ! A4    A(2,3,12)             120.2934         estimate D2E/DX2                !
 ! A5    A(2,4,5)              112.0024         estimate D2E/DX2                !
 ! A6    A(2,4,13)             108.7079         estimate D2E/DX2                !
 ! A7    A(2,4,14)             109.1006         estimate D2E/DX2                !
 ! A8    A(5,4,13)             109.841          estimate D2E/DX2                !
 ! A9    A(5,4,14)             109.0929         estimate D2E/DX2                !
 ! A10   A(13,4,14)            108.0096         estimate D2E/DX2                !
 ! A11   A(4,5,6)              113.028          estimate D2E/DX2                !
 ! A12   A(4,5,15)             108.8884         estimate D2E/DX2                !
 ! A13   A(4,5,16)             109.083          estimate D2E/DX2                !
 ! A14   A(6,5,15)             108.7923         estimate D2E/DX2                !
 ! A15   A(6,5,16)             108.7686         estimate D2E/DX2                !
 ! A16   A(15,5,16)            108.1697         estimate D2E/DX2                !
 ! A17   A(5,6,7)              111.9749         estimate D2E/DX2                !
 ! A18   A(5,6,17)             109.2062         estimate D2E/DX2                !
 ! A19   A(5,6,18)             109.0629         estimate D2E/DX2                !
 ! A20   A(7,6,17)             109.0636         estimate D2E/DX2                !
 ! A21   A(7,6,18)             109.206          estimate D2E/DX2                !
 ! A22   A(17,6,18)            108.2538         estimate D2E/DX2                !
 ! A23   A(6,7,8)              113.0283         estimate D2E/DX2                !
 ! A24   A(6,7,19)             108.7682         estimate D2E/DX2                !
 ! A25   A(6,7,20)             108.7924         estimate D2E/DX2                !
 ! A26   A(8,7,19)             109.0836         estimate D2E/DX2                !
 ! A27   A(8,7,20)             108.8882         estimate D2E/DX2                !
 ! A28   A(19,7,20)            108.1692         estimate D2E/DX2                !
 ! A29   A(7,8,9)              112.0032         estimate D2E/DX2                !
 ! A30   A(7,8,21)             109.0937         estimate D2E/DX2                !
 ! A31   A(7,8,22)             109.8408         estimate D2E/DX2                !
 ! A32   A(9,8,21)             109.0999         estimate D2E/DX2                !
 ! A33   A(9,8,22)             108.7078         estimate D2E/DX2                !
 ! A34   A(21,8,22)            108.009          estimate D2E/DX2                !
 ! A35   A(8,9,10)             120.7569         estimate D2E/DX2                !
 ! A36   A(8,9,11)             120.499          estimate D2E/DX2                !
 ! A37   A(10,9,11)            118.7439         estimate D2E/DX2                !
 ! A38   A(9,11,23)            120.2932         estimate D2E/DX2                !
 ! D1    D(1,2,3,12)             0.604          estimate D2E/DX2                !
 ! D2    D(4,2,3,12)          -179.2197         estimate D2E/DX2                !
 ! D3    D(1,2,4,5)            -65.2525         estimate D2E/DX2                !
 ! D4    D(1,2,4,13)            56.3031         estimate D2E/DX2                !
 ! D5    D(1,2,4,14)           173.8651         estimate D2E/DX2                !
 ! D6    D(3,2,4,5)            114.5676         estimate D2E/DX2                !
 ! D7    D(3,2,4,13)          -123.8767         estimate D2E/DX2                !
 ! D8    D(3,2,4,14)            -6.3148         estimate D2E/DX2                !
 ! D9    D(2,4,5,6)           -177.5334         estimate D2E/DX2                !
 ! D10   D(2,4,5,15)           -56.5103         estimate D2E/DX2                !
 ! D11   D(2,4,5,16)            61.3367         estimate D2E/DX2                !
 ! D12   D(13,4,5,6)            61.5644         estimate D2E/DX2                !
 ! D13   D(13,4,5,15)         -177.4125         estimate D2E/DX2                !
 ! D14   D(13,4,5,16)          -59.5655         estimate D2E/DX2                !
 ! D15   D(14,4,5,6)           -56.6465         estimate D2E/DX2                !
 ! D16   D(14,4,5,15)           64.3766         estimate D2E/DX2                !
 ! D17   D(14,4,5,16)         -177.7764         estimate D2E/DX2                !
 ! D18   D(4,5,6,7)            179.6532         estimate D2E/DX2                !
 ! D19   D(4,5,6,17)            58.7538         estimate D2E/DX2                !
 ! D20   D(4,5,6,18)           -59.3656         estimate D2E/DX2                !
 ! D21   D(15,5,6,7)            58.5756         estimate D2E/DX2                !
 ! D22   D(15,5,6,17)          -62.3238         estimate D2E/DX2                !
 ! D23   D(15,5,6,18)          179.5568         estimate D2E/DX2                !
 ! D24   D(16,5,6,7)           -59.0391         estimate D2E/DX2                !
 ! D25   D(16,5,6,17)         -179.9385         estimate D2E/DX2                !
 ! D26   D(16,5,6,18)           61.9422         estimate D2E/DX2                !
 ! D27   D(5,6,7,8)            179.6526         estimate D2E/DX2                !
 ! D28   D(5,6,7,19)           -59.0389         estimate D2E/DX2                !
 ! D29   D(5,6,7,20)            58.575          estimate D2E/DX2                !
 ! D30   D(17,6,7,8)           -59.3654         estimate D2E/DX2                !
 ! D31   D(17,6,7,19)           61.9431         estimate D2E/DX2                !
 ! D32   D(17,6,7,20)          179.557          estimate D2E/DX2                !
 ! D33   D(18,6,7,8)            58.7542         estimate D2E/DX2                !
 ! D34   D(18,6,7,19)         -179.9373         estimate D2E/DX2                !
 ! D35   D(18,6,7,20)          -62.3234         estimate D2E/DX2                !
 ! D36   D(6,7,8,9)           -177.5336         estimate D2E/DX2                !
 ! D37   D(6,7,8,21)           -56.6466         estimate D2E/DX2                !
 ! D38   D(6,7,8,22)            61.564          estimate D2E/DX2                !
 ! D39   D(19,7,8,9)            61.3363         estimate D2E/DX2                !
 ! D40   D(19,7,8,21)         -177.7767         estimate D2E/DX2                !
 ! D41   D(19,7,8,22)          -59.5661         estimate D2E/DX2                !
 ! D42   D(20,7,8,9)           -56.5103         estimate D2E/DX2                !
 ! D43   D(20,7,8,21)           64.3767         estimate D2E/DX2                !
 ! D44   D(20,7,8,22)         -177.4126         estimate D2E/DX2                !
 ! D45   D(7,8,9,10)           -65.2518         estimate D2E/DX2                !
 ! D46   D(7,8,9,11)           114.5671         estimate D2E/DX2                !
 ! D47   D(21,8,9,10)          173.8648         estimate D2E/DX2                !
 ! D48   D(21,8,9,11)           -6.3163         estimate D2E/DX2                !
 ! D49   D(22,8,9,10)           56.304          estimate D2E/DX2                !
 ! D50   D(22,8,9,11)         -123.877          estimate D2E/DX2                !
 ! D51   D(8,9,11,23)         -179.2197         estimate D2E/DX2                !
 ! D52   D(10,9,11,23)           0.6029         estimate D2E/DX2                !
 --------------------------------------------------------------------------------
 Trust Radius=3.00D-01 FncErr=1.00D-07 GrdErr=1.00D-06 EigMax=2.50D+02 EigMin=1.00D-04
 Number of steps in this run=    122 maximum allowed number of steps=    138.
 GradGradGradGradGradGradGradGradGradGradGradGradGradGradGradGradGradGrad

 Leave Link  103 at Mon Feb 22 21:22:55 2021, MaxMem=   104857600 cpu:               0.6 elap:               0.1
 (Enter /sw/arch/RedHatEnterpriseServer7/EB_production/2019/software/Gaussian/g16.c01/l202.exe)
                          Input orientation:                          
 ---------------------------------------------------------------------
 Center     Atomic      Atomic             Coordinates (Angstroms)
 Number     Number       Type             X           Y           Z
 ---------------------------------------------------------------------
      1          8           0       -0.343990    2.842470   -0.616260
      2          6           0       -0.998430    2.125870   -1.407090
      3          8           0       -0.778760    2.255250   -2.736770
      4          6           0       -1.988320    1.154900   -0.902610
      5          6           0       -1.323030    0.021950   -0.078020
      6          6           0       -2.336250   -1.046910    0.413400
      7          6           0       -1.643770   -2.172780    1.227920
      8          6           0       -2.635860   -3.250320    1.738570
      9          6           0       -1.963510   -4.276860    2.557920
     10          8           0       -1.113050   -5.043760    2.052140
     11          8           0       -2.253610   -4.403880    3.874250
     12          1           0       -0.112390    2.893020   -3.068000
     13          1           0       -2.716510    1.685980   -0.283540
     14          1           0       -2.521510    0.715050   -1.749310
     15          1           0       -0.565560   -0.468570   -0.696780
     16          1           0       -0.822390    0.459100    0.792050
     17          1           0       -2.839900   -1.489200   -0.450540
     18          1           0       -3.091070   -0.562540    1.038970
     19          1           0       -0.889170   -2.651880    0.595620
     20          1           0       -1.134770   -1.724590    2.086580
     21          1           0       -3.411970   -2.766720    2.337260
     22          1           0       -3.120170   -3.740870    0.889830
     23          1           0       -1.796910   -5.079200    4.418210
 ---------------------------------------------------------------------
                    Distance matrix (angstroms):
                    1          2          3          4          5
     1  O    0.000000
     2  C    1.251886   0.000000
     3  O    2.242859   1.353899   0.000000
     4  C    2.373544   1.475522   2.457224   0.000000
     5  C    3.033736   2.509636   3.514656   1.551172   0.000000
     6  C    4.489608   3.894930   4.822199   2.588611   1.552601
     7  C    5.499378   5.083122   6.006202   3.966274   2.573945
     8  C    6.922426   6.440479   7.334084   5.176978   3.966267
     9  C    7.961352   7.592604   8.491516   6.440489   5.083125
    10  O    8.360887   7.961344   8.736187   6.922430   5.499372
    11  O    8.736184   8.491505   9.498673   7.334085   6.006196
    12  H    2.463173   2.032783   0.980058   3.350983   4.318411
    13  H    2.660267   2.099444   3.177622   1.093414   2.180142
    14  H    3.248278   2.104115   2.526751   1.093005   2.170242
    15  H    3.319422   2.724525   3.409723   2.168471   1.094182
    16  H    2.809387   2.765019   3.959877   2.171498   1.094880
    17  H    5.002039   4.168301   4.847273   2.814395   2.173302
    18  H    4.677641   4.194031   5.248136   2.816983   2.171465
    19  H    5.652765   5.181668   5.932701   4.236083   2.791307
    20  H    5.365512   5.200996   6.263432   4.237366   2.787712
    21  H    7.042641   6.616855   7.609189   5.282295   4.239567
    22  H    7.301770   6.648027   7.388361   5.335025   4.280801
    23  H    9.497880   9.299716  10.296821   8.198278   6.816332
                    6          7          8          9         10
     6  C    0.000000
     7  C    1.552596   0.000000
     8  C    2.588601   1.551160   0.000000
     9  C    3.894930   2.509639   1.475525   0.000000
    10  O    4.489599   3.033732   2.373542   1.251891   0.000000
    11  O    4.822194   3.514651   2.457223   1.353889   2.242857
    12  H    5.708656   6.816332   8.198271   9.299720   9.497875
    13  H    2.845876   4.280807   5.335025   6.648035   7.301773
    14  H    2.795736   4.239562   5.282286   6.616854   7.042633
    15  H    2.168483   2.787712   4.237358   5.201001   5.365507
    16  H    2.168689   2.791315   4.236080   5.181676   5.652767
    17  H    1.093470   2.171460   2.816980   4.194036   4.677640
    18  H    1.093483   2.173304   2.814395   4.168306   5.002041
    19  H    2.168680   1.094880   2.171495   2.765029   2.809388
    20  H    2.168487   1.094190   2.168464   2.724528   3.319420
    21  H    2.795739   2.170238   1.092998   2.104103   3.248267
    22  H    2.845863   2.180130   1.093414   2.099446   2.660266
    23  H    5.708656   4.318412   3.350986   2.032777   2.463170
                   11         12         13         14         15
    11  O    0.000000
    12  H   10.296815   0.000000
    13  H    7.388362   3.998950   0.000000
    14  H    7.609181   3.505190   1.768958   0.000000
    15  H    6.263425   4.138639   3.072367   2.516846   0.000000
    16  H    5.932699   4.618230   2.499964   3.067740   1.772893
    17  H    5.248133   5.787423   3.181962   2.578157   2.504983
    18  H    4.847272   6.138455   2.635369   3.119478   3.065919
    19  H    3.959876   6.691144   4.788436   4.415818   2.557707
    20  H    3.409716   6.995518   4.444250   4.752783   3.106232
    21  H    2.526743   8.493334   5.213329   5.442030   4.752783
    22  H    3.177620   8.289732   5.566906   5.213317   4.444245
    23  H    0.980064  11.065136   8.289739   8.493332   6.995517
                   16         17         18         19         20
    16  H    0.000000
    17  H    3.067613   0.000000
    18  H    2.500325   1.772124   0.000000
    19  H    3.117890   2.500325   3.067615   0.000000
    20  H    2.557712   3.065918   2.504986   1.772893   0.000000
    21  H    4.415825   3.119479   2.578167   3.067738   2.516846
    22  H    4.788434   2.635367   3.181960   2.499964   3.072362
    23  H    6.691150   6.138457   5.787429   4.618232   4.138639
                   21         22         23
    21  H    0.000000
    22  H    1.768946   0.000000
    23  H    3.505187   3.998951   0.000000
 Stoichiometry    C7H12O4
 Framework group  C1[X(C7H12O4)]
 Deg. of freedom    63
 Full point group                 C1      NOp   1
 Largest Abelian subgroup         C1      NOp   1
 Largest concise Abelian subgroup C1      NOp   1
                         Standard orientation:                         
 ---------------------------------------------------------------------
 Center     Atomic      Atomic             Coordinates (Angstroms)
 Number     Number       Type             X           Y           Z
 ---------------------------------------------------------------------
      1          8           0       -4.041745    1.067911   -0.871726
      2          6           0       -3.794728    0.109217   -0.105497
      3          8           0       -4.656518   -0.934370   -0.069643
      4          6           0       -2.586079    0.111721    0.740864
      5          6           0       -1.285579    0.059845   -0.103022
      6          6           0        0.000002   -0.000014    0.765464
      7          6           0        1.285582   -0.059846   -0.103017
      8          6           0        2.586075   -0.111735    0.740857
      9          6           0        3.794734   -0.109209   -0.105494
     10          8           0        4.041743   -1.067891   -0.871748
     11          8           0        4.656514    0.934373   -0.069625
     12          1           0       -5.452453   -0.938107   -0.641470
     13          1           0       -2.592123    1.014146    1.358235
     14          1           0       -2.614468   -0.753984    1.407504
     15          1           0       -1.316767   -0.823575   -0.747872
     16          1           0       -1.237930    0.947555   -0.742133
     17          1           0       -0.039652   -0.885188    1.406222
     18          1           0        0.039650    0.885161    1.406243
     19          1           0        1.237928   -0.947536   -0.742156
     20          1           0        1.316770    0.823594   -0.747853
     21          1           0        2.614475    0.753945    1.407518
     22          1           0        2.592119   -1.014172    1.358212
     23          1           0        5.452456    0.938115   -0.641453
 ---------------------------------------------------------------------
 Rotational constants (GHZ):           3.7535045           0.2638068           0.2617661
 Leave Link  202 at Mon Feb 22 21:22:56 2021, MaxMem=   104857600 cpu:               0.7 elap:               0.1
 (Enter /sw/arch/RedHatEnterpriseServer7/EB_production/2019/software/Gaussian/g16.c01/l301.exe)
 Standard basis: TZVP (5D, 7F)
 Ernie: Thresh=  0.10000D-02 Tol=  0.10000D-05 Strict=F.
 There are   292 symmetry adapted cartesian basis functions of A   symmetry.
 There are   281 symmetry adapted basis functions of A   symmetry.
   281 basis functions,   481 primitive gaussians,   292 cartesian basis functions
    43 alpha electrons       43 beta electrons
       nuclear repulsion energy       580.0092477893 Hartrees.
 IExCor=  404 DFT=T Ex=B Corr=P86 ExCW=0 ScaHFX=  0.000000
 ScaDFX=  1.000000  1.000000  1.000000  1.000000 ScalE2=  1.000000  1.000000
 IRadAn=      5 IRanWt=     -1 IRanGd=            0 ICorTp=0 IEmpDi=131
 NAtoms=   23 NActive=   23 NUniq=   23 SFac= 1.00D+00 NAtFMM=   60 NAOKFM=F Big=F
 Integral buffers will be    131072 words long.
 Raffenetti 2 integral format.
 Two-electron integral symmetry is turned on.
 R6Disp:  Grimme-D3 Dispersion energy=       -0.0207310520 Hartrees.
 Nuclear repulsion after empirical dispersion term =      579.9885167373 Hartrees.
 ------------------------------------------------------------------------------
 Polarizable Continuum Model (PCM)
 =================================
 Model                : PCM.
 Atomic radii         : UFF (Universal Force Field).
 Polarization charges : Total charges.
 Charge compensation  : None.
 Solution method      : On-the-fly selection.
 Cavity type          : Scaled VdW (van der Waals Surface) (Alpha=1.100).
 Cavity algorithm     : GePol (No added spheres)
                        Default sphere list used, NSphG=   23.
                        Lebedev-Laikov grids with approx.  5.0 points / Ang**2.
                        Smoothing algorithm: York/Karplus (Gamma=1.0000).
                        Polarization charges: spherical gaussians, with
                                              point-specific exponents (IZeta= 3).
                        Self-potential: point-specific (ISelfS= 7).
                        Self-field    : sphere-specific E.n sum rule (ISelfD= 2).
 1st derivatives      : Analytical E(r).r(x)/FMM algorithm (CHGder, D1EAlg=3).
                        Cavity 1st derivative terms included.
 Solvent              : Water, Eps=  78.355300 Eps(inf)=   1.777849
 ------------------------------------------------------------------------------
 GePol: Number of generator spheres                  =      23
 GePol: Total number of spheres                      =      23
 GePol: Number of exposed spheres                    =      23 (100.00%)
 GePol: Number of points                             =    1897
 GePol: Average weight of points                     =       0.13
 GePol: Minimum weight of points                     =   0.16D-11
 GePol: Maximum weight of points                     =    0.20577
 GePol: Number of points with low weight             =     124
 GePol: Fraction of low-weight points (<1% of avg)   =       6.54%
 GePol: Cavity surface area                          =    251.517 Ang**2
 GePol: Cavity volume                                =    242.944 Ang**3
 Leave Link  301 at Mon Feb 22 21:22:56 2021, MaxMem=   104857600 cpu:               1.9 elap:               0.1
 (Enter /sw/arch/RedHatEnterpriseServer7/EB_production/2019/software/Gaussian/g16.c01/l302.exe)
 NPDir=0 NMtPBC=     1 NCelOv=     1 NCel=       1 NClECP=     1 NCelD=      1
         NCelK=      1 NCelE2=     1 NClLst=     1 CellRange=     0.0.
 One-electron integrals computed using PRISM.
 One-electron integral symmetry used in STVInt
 PrsmSu:  requested number of processors reduced to:  28 ShMem   1 Linda.
 NBasis=   281 RedAO= T EigKep=  9.23D-05  NBF=   281
 NBsUse=   281 1.00D-06 EigRej= -1.00D+00 NBFU=   281
 Precomputing XC quadrature grid using
 IXCGrd= 4 IRadAn=           5 IRanWt=          -1 IRanGd=           0 AccXCQ= 0.00D+00.
 Generated NRdTot=       0 NPtTot=           0 NUsed=           0 NTot=          32
 NSgBfM=   282   282   282   282   282 MxSgAt=    23 MxSgA2=    23.
 Leave Link  302 at Mon Feb 22 21:22:56 2021, MaxMem=   104857600 cpu:               7.9 elap:               0.3
 (Enter /sw/arch/RedHatEnterpriseServer7/EB_production/2019/software/Gaussian/g16.c01/l303.exe)
 DipDrv:  MaxL=1.
 Leave Link  303 at Mon Feb 22 21:22:57 2021, MaxMem=   104857600 cpu:               3.0 elap:               0.1
 (Enter /sw/arch/RedHatEnterpriseServer7/EB_production/2019/software/Gaussian/g16.c01/l401.exe)
 ExpMin= 9.52D-02 ExpMax= 2.70D+04 ExpMxC= 9.22D+02 IAcc=3 IRadAn=         5 AccDes= 0.00D+00
 Harris functional with IExCor=  404 and IRadAn=       5 diagonalized for initial guess.
 HarFok:  IExCor=  404 AccDes= 0.00D+00 IRadAn=         5 IDoV= 1 UseB2=F ITyADJ=14
 ICtDFT=  3500011 ScaDFX=  1.000000  1.000000  1.000000  1.000000
 FoFCou: FMM=F IPFlag=           0 FMFlag=      100000 FMFlg1=           0
         NFxFlg=           0 DoJE=T BraDBF=F KetDBF=T FulRan=T
         wScrn=  0.000000 ICntrl=       500 IOpCl=  0 I1Cent=   200000004 NGrid=           0
         NMat0=    1 NMatS0=      1 NMatT0=    0 NMatD0=    1 NMtDS0=    0 NMtDT0=    0
 Petite list used in FoFCou.
 Harris En= -575.344449033639    
 JPrj=0 DoOrth=F DoCkMO=F.
 Leave Link  401 at Mon Feb 22 21:22:57 2021, MaxMem=   104857600 cpu:              13.9 elap:               0.5
 (Enter /sw/arch/RedHatEnterpriseServer7/EB_production/2019/software/Gaussian/g16.c01/l502.exe)
 Integral symmetry usage will be decided dynamically.
 Closed shell SCF:
 Using DIIS extrapolation, IDIIS=  1040.
 NGot=   104857600 LenX=   104674140 LenY=   104588435
 Requested convergence on RMS density matrix=1.00D-08 within 128 cycles.
 Requested convergence on MAX density matrix=1.00D-06.
 Requested convergence on             energy=1.00D-06.
 No special actions if energy rises.
 Fock matrices will be formed incrementally for  20 cycles.

 Cycle   1  Pass 1  IDiag  1:
 FoFJK:  IHMeth= 1 ICntrl=     500 DoSepK=F KAlg= 0 I1Cent=           0 FoldK=F
 IRaf= 820000000 NMat=       1 IRICut=       1 DoRegI=T DoRafI=F ISym2E= 0 IDoP0=0 IntGTp=1.
 FoFCou: FMM=F IPFlag=           0 FMFlag=      100000 FMFlg1=           0
         NFxFlg=           0 DoJE=T BraDBF=F KetDBF=F FulRan=T
         wScrn=  0.000000 ICntrl=       500 IOpCl=  0 I1Cent=           0 NGrid=           0
         NMat0=    1 NMatS0=      1 NMatT0=    0 NMatD0=    1 NMtDS0=    0 NMtDT0=    0
 Symmetry not used in FoFCou.
 Inv3:  Mode=1 IEnd=    10795827.
 Iteration    1 A*A^-1 deviation from unit magnitude is 3.55D-15 for    402.
 Iteration    1 A*A^-1 deviation from orthogonality  is 2.41D-15 for    966    729.
 Iteration    1 A^-1*A deviation from unit magnitude is 3.55D-15 for    402.
 Iteration    1 A^-1*A deviation from orthogonality  is 3.21D-15 for   1014    966.
 E= -574.786061565819    
 DIIS: error= 3.48D-02 at cycle   1 NSaved=   1.
 NSaved= 1 IEnMin= 1 EnMin= -574.786061565819     IErMin= 1 ErrMin= 3.48D-02
 ErrMax= 3.48D-02  0.00D+00 EMaxC= 1.00D-01 BMatC= 4.23D-01 BMatP= 4.23D-01
 IDIUse=3 WtCom= 6.52D-01 WtEn= 3.48D-01
 Coeff-Com:  0.100D+01
 Coeff-En:   0.100D+01
 Coeff:      0.100D+01
 Gap=     0.062 Goal=   None    Shift=    0.000
 GapD=    0.062 DampG=0.500 DampE=0.500 DampFc=0.2500 IDamp=-1.
 Damping current iteration by 2.50D-01
 RMSDP=7.58D-03 MaxDP=4.17D-01              OVMax= 3.21D-01

 Cycle   2  Pass 1  IDiag  1:
 RMSU=  1.89D-03    CP:  9.97D-01
 E= -574.906044187076     Delta-E=       -0.119982621257 Rises=F Damp=T
 DIIS: error= 1.18D-02 at cycle   2 NSaved=   2.
 NSaved= 2 IEnMin= 2 EnMin= -574.906044187076     IErMin= 2 ErrMin= 1.18D-02
 ErrMax= 1.18D-02  0.00D+00 EMaxC= 1.00D-01 BMatC= 5.10D-02 BMatP= 4.23D-01
 IDIUse=3 WtCom= 8.82D-01 WtEn= 1.18D-01
 Coeff-Com: -0.285D+00 0.128D+01
 Coeff-En:   0.305D-01 0.970D+00
 Coeff:     -0.247D+00 0.125D+01
 Gap=     0.165 Goal=   None    Shift=    0.000
 RMSDP=1.64D-03 MaxDP=2.97D-02 DE=-1.20D-01 OVMax= 2.45D-01

 Cycle   3  Pass 1  IDiag  1:
 RMSU=  1.64D-03    CP:  9.88D-01  1.06D+00
 E= -575.039385615225     Delta-E=       -0.133341428149 Rises=F Damp=F
 DIIS: error= 2.59D-02 at cycle   3 NSaved=   3.
 NSaved= 3 IEnMin= 3 EnMin= -575.039385615225     IErMin= 2 ErrMin= 1.18D-02
 ErrMax= 2.59D-02  0.00D+00 EMaxC= 1.00D-01 BMatC= 1.25D-01 BMatP= 5.10D-02
 IDIUse=2 WtCom= 0.00D+00 WtEn= 1.00D+00
 EnCoef did   100 forward-backward iterations
 Coeff-En:   0.551D-01 0.186D-02 0.943D+00
 Coeff:      0.551D-01 0.186D-02 0.943D+00
 Gap=     0.120 Goal=   None    Shift=    0.000
 RMSDP=3.97D-03 MaxDP=8.30D-02 DE=-1.33D-01 OVMax= 4.04D-01

 Cycle   4  Pass 1  IDiag  1:
 RMSU=  1.70D-03    CP:  9.99D-01  2.06D+00 -8.55D-01
 E= -574.235138321824     Delta-E=        0.804247293401 Rises=F Damp=F
 DIIS: error= 8.31D-02 at cycle   4 NSaved=   4.
 NSaved= 4 IEnMin= 3 EnMin= -575.039385615225     IErMin= 2 ErrMin= 1.18D-02
 ErrMax= 8.31D-02  0.00D+00 EMaxC= 1.00D-01 BMatC= 1.15D+00 BMatP= 5.10D-02
 IDIUse=2 WtCom= 0.00D+00 WtEn= 1.00D+00
 Coeff-En:   0.000D+00 0.000D+00 0.838D+00 0.162D+00
 Coeff:      0.000D+00 0.000D+00 0.838D+00 0.162D+00
 Gap=     0.147 Goal=   None    Shift=    0.000
 RMSDP=2.49D-03 MaxDP=8.10D-02 DE= 8.04D-01 OVMax= 2.29D-01

 Cycle   5  Pass 1  IDiag  1:
 RMSU=  4.44D-04    CP:  9.97D-01  1.11D+00  2.80D-02  5.09D-01
 E= -575.053289189963     Delta-E=       -0.818150868138 Rises=F Damp=F
 DIIS: error= 2.50D-02 at cycle   5 NSaved=   5.
 NSaved= 5 IEnMin= 5 EnMin= -575.053289189963     IErMin= 2 ErrMin= 1.18D-02
 ErrMax= 2.50D-02  0.00D+00 EMaxC= 1.00D-01 BMatC= 1.13D-01 BMatP= 5.10D-02
 IDIUse=2 WtCom= 0.00D+00 WtEn= 1.00D+00
 Coeff-En:   0.000D+00 0.000D+00 0.474D+00 0.000D+00 0.526D+00
 Coeff:      0.000D+00 0.000D+00 0.474D+00 0.000D+00 0.526D+00
 Gap=     0.174 Goal=   None    Shift=    0.000
 RMSDP=8.88D-04 MaxDP=2.17D-02 DE=-8.18D-01 OVMax= 9.26D-02

 Cycle   6  Pass 1  IDiag  1:
 RMSU=  1.90D-04    CP:  9.92D-01  1.05D+00  4.70D-01  2.43D-01  7.89D-01
 E= -575.139797837445     Delta-E=       -0.086508647483 Rises=F Damp=F
 DIIS: error= 2.50D-03 at cycle   6 NSaved=   6.
 NSaved= 6 IEnMin= 6 EnMin= -575.139797837445     IErMin= 6 ErrMin= 2.50D-03
 ErrMax= 2.50D-03  0.00D+00 EMaxC= 1.00D-01 BMatC= 2.13D-03 BMatP= 5.10D-02
 IDIUse=3 WtCom= 9.75D-01 WtEn= 2.50D-02
 Coeff-Com: -0.435D-01 0.787D-01 0.261D+00-0.441D-01 0.400D+00 0.348D+00
 Coeff-En:   0.000D+00 0.000D+00 0.000D+00 0.000D+00 0.000D+00 0.100D+01
 Coeff:     -0.424D-01 0.768D-01 0.254D+00-0.430D-01 0.390D+00 0.364D+00
 Gap=     0.176 Goal=   None    Shift=    0.000
 RMSDP=1.31D-04 MaxDP=3.76D-03 DE=-8.65D-02 OVMax= 9.10D-03

 Cycle   7  Pass 1  IDiag  1:
 RMSU=  6.75D-05    CP:  9.92D-01  1.05D+00  4.56D-01  2.76D-01  7.75D-01
                    CP:  5.04D-01
 E= -575.141220345033     Delta-E=       -0.001422507588 Rises=F Damp=F
 DIIS: error= 7.61D-04 at cycle   7 NSaved=   7.
 NSaved= 7 IEnMin= 7 EnMin= -575.141220345033     IErMin= 7 ErrMin= 7.61D-04
 ErrMax= 7.61D-04  0.00D+00 EMaxC= 1.00D-01 BMatC= 1.43D-04 BMatP= 2.13D-03
 IDIUse=3 WtCom= 9.92D-01 WtEn= 7.61D-03
 Coeff-Com: -0.495D-02 0.772D-02 0.710D-01-0.162D-01 0.119D+00 0.232D+00
 Coeff-Com:  0.591D+00
 Coeff-En:   0.000D+00 0.000D+00 0.000D+00 0.000D+00 0.000D+00 0.227D-01
 Coeff-En:   0.977D+00
 Coeff:     -0.491D-02 0.766D-02 0.704D-01-0.160D-01 0.118D+00 0.231D+00
 Coeff:      0.594D+00
 Gap=     0.176 Goal=   None    Shift=    0.000
 RMSDP=3.15D-05 MaxDP=7.96D-04 DE=-1.42D-03 OVMax= 2.15D-03

 Cycle   8  Pass 1  IDiag  1:
 RMSU=  2.00D-05    CP:  9.92D-01  1.05D+00  4.60D-01  2.70D-01  7.70D-01
                    CP:  5.51D-01  7.24D-01
 E= -575.141319503279     Delta-E=       -0.000099158246 Rises=F Damp=F
 DIIS: error= 2.02D-04 at cycle   8 NSaved=   8.
 NSaved= 8 IEnMin= 8 EnMin= -575.141319503279     IErMin= 8 ErrMin= 2.02D-04
 ErrMax= 2.02D-04  0.00D+00 EMaxC= 1.00D-01 BMatC= 1.26D-05 BMatP= 1.43D-04
 IDIUse=3 WtCom= 9.98D-01 WtEn= 2.02D-03
 Coeff-Com:  0.580D-02-0.951D-02 0.102D-01-0.191D-02 0.136D-01 0.943D-01
 Coeff-Com:  0.322D+00 0.565D+00
 Coeff-En:   0.000D+00 0.000D+00 0.000D+00 0.000D+00 0.000D+00 0.000D+00
 Coeff-En:   0.000D+00 0.100D+01
 Coeff:      0.579D-02-0.949D-02 0.102D-01-0.191D-02 0.136D-01 0.941D-01
 Coeff:      0.322D+00 0.566D+00
 Gap=     0.176 Goal=   None    Shift=    0.000
 RMSDP=1.42D-05 MaxDP=4.86D-04 DE=-9.92D-05 OVMax= 6.58D-04

 Cycle   9  Pass 1  IDiag  1:
 RMSU=  5.56D-06    CP:  9.92D-01  1.05D+00  4.62D-01  2.68D-01  7.68D-01
                    CP:  5.70D-01  7.40D-01  6.32D-01
 E= -575.141329962422     Delta-E=       -0.000010459142 Rises=F Damp=F
 DIIS: error= 4.28D-05 at cycle   9 NSaved=   9.
 NSaved= 9 IEnMin= 9 EnMin= -575.141329962422     IErMin= 9 ErrMin= 4.28D-05
 ErrMax= 4.28D-05  0.00D+00 EMaxC= 1.00D-01 BMatC= 2.58D-07 BMatP= 1.26D-05
 IDIUse=1 WtCom= 1.00D+00 WtEn= 0.00D+00
 Coeff-Com:  0.188D-02-0.260D-02 0.183D-02-0.354D-03 0.135D-02 0.214D-01
 Coeff-Com:  0.778D-01 0.166D+00 0.733D+00
 Coeff:      0.188D-02-0.260D-02 0.183D-02-0.354D-03 0.135D-02 0.214D-01
 Coeff:      0.778D-01 0.166D+00 0.733D+00
 Gap=     0.176 Goal=   None    Shift=    0.000
 RMSDP=1.70D-06 MaxDP=3.47D-05 DE=-1.05D-05 OVMax= 1.12D-04

 Cycle  10  Pass 1  IDiag  1:
 RMSU=  1.06D-06    CP:  9.92D-01  1.04D+00  4.62D-01  2.68D-01  7.68D-01
                    CP:  5.71D-01  7.47D-01  6.57D-01  8.14D-01
 E= -575.141330157702     Delta-E=       -0.000000195280 Rises=F Damp=F
 DIIS: error= 7.63D-06 at cycle  10 NSaved=  10.
 NSaved=10 IEnMin=10 EnMin= -575.141330157702     IErMin=10 ErrMin= 7.63D-06
 ErrMax= 7.63D-06  0.00D+00 EMaxC= 1.00D-01 BMatC= 2.12D-08 BMatP= 2.58D-07
 IDIUse=1 WtCom= 1.00D+00 WtEn= 0.00D+00
 Coeff-Com:  0.741D-03-0.916D-03 0.618D-03-0.118D-03 0.219D-03 0.675D-02
 Coeff-Com:  0.258D-01 0.582D-01 0.375D+00 0.534D+00
 Coeff:      0.741D-03-0.916D-03 0.618D-03-0.118D-03 0.219D-03 0.675D-02
 Coeff:      0.258D-01 0.582D-01 0.375D+00 0.534D+00
 Gap=     0.176 Goal=   None    Shift=    0.000
 RMSDP=4.93D-07 MaxDP=1.09D-05 DE=-1.95D-07 OVMax= 2.89D-05

 Cycle  11  Pass 1  IDiag  1:
 RMSU=  3.31D-07    CP:  9.92D-01  1.04D+00  4.62D-01  2.68D-01  7.68D-01
                    CP:  5.71D-01  7.46D-01  6.51D-01  8.27D-01  7.90D-01
 E= -575.141330173254     Delta-E=       -0.000000015553 Rises=F Damp=F
 DIIS: error= 2.46D-06 at cycle  11 NSaved=  11.
 NSaved=11 IEnMin=11 EnMin= -575.141330173254     IErMin=11 ErrMin= 2.46D-06
 ErrMax= 2.46D-06  0.00D+00 EMaxC= 1.00D-01 BMatC= 2.25D-09 BMatP= 2.12D-08
 IDIUse=1 WtCom= 1.00D+00 WtEn= 0.00D+00
 Coeff-Com:  0.142D-03-0.150D-03 0.120D-03-0.199D-04 0.208D-04 0.530D-03
 Coeff-Com:  0.235D-02 0.470D-02 0.855D-01 0.274D+00 0.633D+00
 Coeff:      0.142D-03-0.150D-03 0.120D-03-0.199D-04 0.208D-04 0.530D-03
 Coeff:      0.235D-02 0.470D-02 0.855D-01 0.274D+00 0.633D+00
 Gap=     0.176 Goal=   None    Shift=    0.000
 RMSDP=2.01D-07 MaxDP=5.07D-06 DE=-1.56D-08 OVMax= 1.01D-05

 Cycle  12  Pass 1  IDiag  1:
 RMSU=  1.11D-07    CP:  9.92D-01  1.04D+00  4.62D-01  2.68D-01  7.68D-01
                    CP:  5.71D-01  7.45D-01  6.52D-01  8.31D-01  7.79D-01
                    CP:  6.64D-01
 E= -575.141330175340     Delta-E=       -0.000000002085 Rises=F Damp=F
 DIIS: error= 3.82D-07 at cycle  12 NSaved=  12.
 NSaved=12 IEnMin=12 EnMin= -575.141330175340     IErMin=12 ErrMin= 3.82D-07
 ErrMax= 3.82D-07  0.00D+00 EMaxC= 1.00D-01 BMatC= 6.35D-11 BMatP= 2.25D-09
 IDIUse=1 WtCom= 1.00D+00 WtEn= 0.00D+00
 Coeff-Com:  0.230D-04-0.198D-04 0.248D-04-0.330D-05 0.469D-05-0.864D-04
 Coeff-Com: -0.181D-03-0.741D-03 0.135D-01 0.685D-01 0.219D+00 0.700D+00
 Coeff:      0.230D-04-0.198D-04 0.248D-04-0.330D-05 0.469D-05-0.864D-04
 Coeff:     -0.181D-03-0.741D-03 0.135D-01 0.685D-01 0.219D+00 0.700D+00
 Gap=     0.176 Goal=   None    Shift=    0.000
 RMSDP=3.74D-08 MaxDP=8.70D-07 DE=-2.09D-09 OVMax= 2.11D-06

 Cycle  13  Pass 1  IDiag  1:
 RMSU=  2.71D-08    CP:  9.92D-01  1.04D+00  4.62D-01  2.68D-01  7.68D-01
                    CP:  5.71D-01  7.45D-01  6.52D-01  8.29D-01  7.93D-01
                    CP:  6.97D-01  8.87D-01
 E= -575.141330175376     Delta-E=       -0.000000000037 Rises=F Damp=F
 DIIS: error= 2.64D-07 at cycle  13 NSaved=  13.
 NSaved=13 IEnMin=13 EnMin= -575.141330175376     IErMin=13 ErrMin= 2.64D-07
 ErrMax= 2.64D-07  0.00D+00 EMaxC= 1.00D-01 BMatC= 1.71D-11 BMatP= 6.35D-11
 IDIUse=1 WtCom= 1.00D+00 WtEn= 0.00D+00
 Coeff-Com:  0.896D-05-0.671D-05 0.125D-04-0.167D-05 0.415D-05-0.721D-04
 Coeff-Com: -0.204D-03-0.662D-03 0.474D-02 0.311D-01 0.112D+00 0.467D+00
 Coeff-Com:  0.386D+00
 Coeff:      0.896D-05-0.671D-05 0.125D-04-0.167D-05 0.415D-05-0.721D-04
 Coeff:     -0.204D-03-0.662D-03 0.474D-02 0.311D-01 0.112D+00 0.467D+00
 Coeff:      0.386D+00
 Gap=     0.176 Goal=   None    Shift=    0.000
 RMSDP=1.50D-08 MaxDP=4.80D-07 DE=-3.66D-11 OVMax= 1.44D-06

 Cycle  14  Pass 1  IDiag  1:
 RMSU=  1.25D-08    CP:  9.92D-01  1.04D+00  4.62D-01  2.68D-01  7.68D-01
                    CP:  5.71D-01  7.45D-01  6.52D-01  8.29D-01  7.94D-01
                    CP:  6.97D-01  9.03D-01  7.33D-01
 E= -575.141330175388     Delta-E=       -0.000000000012 Rises=F Damp=F
 DIIS: error= 1.34D-07 at cycle  14 NSaved=  14.
 NSaved=14 IEnMin=14 EnMin= -575.141330175388     IErMin=14 ErrMin= 1.34D-07
 ErrMax= 1.34D-07  0.00D+00 EMaxC= 1.00D-01 BMatC= 3.42D-12 BMatP= 1.71D-11
 IDIUse=1 WtCom= 1.00D+00 WtEn= 0.00D+00
 Coeff-Com:  0.180D-05-0.102D-05 0.428D-05-0.615D-06 0.242D-05-0.282D-04
 Coeff-Com: -0.969D-04-0.289D-03 0.390D-03 0.706D-02 0.315D-01 0.185D+00
 Coeff-Com:  0.298D+00 0.478D+00
 Coeff:      0.180D-05-0.102D-05 0.428D-05-0.615D-06 0.242D-05-0.282D-04
 Coeff:     -0.969D-04-0.289D-03 0.390D-03 0.706D-02 0.315D-01 0.185D+00
 Coeff:      0.298D+00 0.478D+00
 Gap=     0.176 Goal=   None    Shift=    0.000
 RMSDP=6.38D-09 MaxDP=2.33D-07 DE=-1.16D-11 OVMax= 5.93D-07

 Error on total polarization charges =  0.01233
 SCF Done:  E(RB-P86) =  -575.141330175     A.U. after   14 cycles
            NFock= 14  Conv=0.64D-08     -V/T= 2.0046
 KE= 5.725096015276D+02 PE=-2.506473065317D+03 EE= 7.788336168769D+02
 Leave Link  502 at Mon Feb 22 21:23:14 2021, MaxMem=   104857600 cpu:             507.5 elap:              16.3
 (Enter /sw/arch/RedHatEnterpriseServer7/EB_production/2019/software/Gaussian/g16.c01/l601.exe)
 Copying SCF densities to generalized density rwf, IOpCl= 0 IROHF=0.

 **********************************************************************

            Population analysis using the SCF Density.

 **********************************************************************

 Orbital symmetries:
       Occupied  (A) (A) (A) (A) (A) (A) (A) (A) (A) (A) (A) (A)
                 (A) (A) (A) (A) (A) (A) (A) (A) (A) (A) (A) (A)
                 (A) (A) (A) (A) (A) (A) (A) (A) (A) (A) (A) (A)
                 (A) (A) (A) (A) (A) (A) (A)
       Virtual   (A) (A) (A) (A) (A) (A) (A) (A) (A) (A) (A) (A)
                 (A) (A) (A) (A) (A) (A) (A) (A) (A) (A) (A) (A)
                 (A) (A) (A) (A) (A) (A) (A) (A) (A) (A) (A) (A)
                 (A) (A) (A) (A) (A) (A) (A) (A) (A) (A) (A) (A)
                 (A) (A) (A) (A) (A) (A) (A) (A) (A) (A) (A) (A)
                 (A) (A) (A) (A) (A) (A) (A) (A) (A) (A) (A) (A)
                 (A) (A) (A) (A) (A) (A) (A) (A) (A) (A) (A) (A)
                 (A) (A) (A) (A) (A) (A) (A) (A) (A) (A) (A) (A)
                 (A) (A) (A) (A) (A) (A) (A) (A) (A) (A) (A) (A)
                 (A) (A) (A) (A) (A) (A) (A) (A) (A) (A) (A) (A)
                 (A) (A) (A) (A) (A) (A) (A) (A) (A) (A) (A) (A)
                 (A) (A) (A) (A) (A) (A) (A) (A) (A) (A) (A) (A)
                 (A) (A) (A) (A) (A) (A) (A) (A) (A) (A) (A) (A)
                 (A) (A) (A) (A) (A) (A) (A) (A) (A) (A) (A) (A)
                 (A) (A) (A) (A) (A) (A) (A) (A) (A) (A) (A) (A)
                 (A) (A) (A) (A) (A) (A) (A) (A) (A) (A) (A) (A)
                 (A) (A) (A) (A) (A) (A) (A) (A) (A) (A) (A) (A)
                 (A) (A) (A) (A) (A) (A) (A) (A) (A) (A) (A) (A)
                 (A) (A) (A) (A) (A) (A) (A) (A) (A) (A) (A) (A)
                 (A) (A) (A) (A) (A) (A) (A) (A) (A) (A)
 The electronic state is 1-A.
 Alpha  occ. eigenvalues --  -18.82294 -18.82294 -18.75851 -18.75851 -10.03620
 Alpha  occ. eigenvalues --  -10.03619  -9.91847  -9.91847  -9.90995  -9.90994
 Alpha  occ. eigenvalues --   -9.90322  -1.01717  -1.01717  -0.92344  -0.92344
 Alpha  occ. eigenvalues --   -0.75135  -0.72670  -0.67468  -0.61710  -0.58183
 Alpha  occ. eigenvalues --   -0.55424  -0.53401  -0.46198  -0.45193  -0.44675
 Alpha  occ. eigenvalues --   -0.42826  -0.42477  -0.42322  -0.40489  -0.39880
 Alpha  occ. eigenvalues --   -0.36245  -0.35817  -0.35296  -0.34087  -0.32992
 Alpha  occ. eigenvalues --   -0.31748  -0.31012  -0.30362  -0.29942  -0.28358
 Alpha  occ. eigenvalues --   -0.28134  -0.23677  -0.23575
 Alpha virt. eigenvalues --   -0.05946  -0.05355   0.01232   0.01509   0.03043
 Alpha virt. eigenvalues --    0.05361   0.05460   0.05638   0.07753   0.08691
 Alpha virt. eigenvalues --    0.09789   0.10562   0.11138   0.11548   0.11822
 Alpha virt. eigenvalues --    0.12707   0.14075   0.15121   0.15556   0.16177
 Alpha virt. eigenvalues --    0.19049   0.19103   0.19700   0.20988   0.23007
 Alpha virt. eigenvalues --    0.24324   0.24334   0.25217   0.25623   0.26461
 Alpha virt. eigenvalues --    0.27319   0.27800   0.28311   0.30042   0.30103
 Alpha virt. eigenvalues --    0.32606   0.33622   0.33826   0.35357   0.36992
 Alpha virt. eigenvalues --    0.37791   0.37914   0.38508   0.39115   0.40207
 Alpha virt. eigenvalues --    0.40296   0.41314   0.41944   0.42451   0.43174
 Alpha virt. eigenvalues --    0.43813   0.44138   0.44158   0.45044   0.45950
 Alpha virt. eigenvalues --    0.45986   0.46516   0.48784   0.49210   0.49439
 Alpha virt. eigenvalues --    0.49574   0.50561   0.51694   0.52929   0.54580
 Alpha virt. eigenvalues --    0.55231   0.56744   0.59225   0.61493   0.61906
 Alpha virt. eigenvalues --    0.62312   0.65315   0.66017   0.68063   0.70294
 Alpha virt. eigenvalues --    0.74788   0.77952   0.80821   0.86660   0.87123
 Alpha virt. eigenvalues --    1.03539   1.09221   1.11759   1.15570   1.16592
 Alpha virt. eigenvalues --    1.17628   1.18395   1.22197   1.22892   1.22911
 Alpha virt. eigenvalues --    1.25312   1.26450   1.26487   1.27671   1.29615
 Alpha virt. eigenvalues --    1.30136   1.31623   1.32058   1.33178   1.34607
 Alpha virt. eigenvalues --    1.35215   1.35595   1.36868   1.39861   1.40526
 Alpha virt. eigenvalues --    1.41558   1.43029   1.44308   1.45852   1.46213
 Alpha virt. eigenvalues --    1.47777   1.50270   1.50825   1.52939   1.52959
 Alpha virt. eigenvalues --    1.54183   1.55248   1.55700   1.58088   1.59115
 Alpha virt. eigenvalues --    1.62474   1.63282   1.65770   1.68010   1.69365
 Alpha virt. eigenvalues --    1.72347   1.73980   1.75391   1.76678   1.78016
 Alpha virt. eigenvalues --    1.78315   1.78663   1.79990   1.81095   1.81485
 Alpha virt. eigenvalues --    1.86104   1.89882   1.90679   1.90766   1.96333
 Alpha virt. eigenvalues --    1.96598   2.04022   2.04659   2.05093   2.09860
 Alpha virt. eigenvalues --    2.10162   2.11969   2.12965   2.14493   2.15906
 Alpha virt. eigenvalues --    2.17515   2.18177   2.20155   2.23500   2.25243
 Alpha virt. eigenvalues --    2.27501   2.32573   2.33394   2.34259   2.41514
 Alpha virt. eigenvalues --    2.45269   2.45482   2.46543   2.47517   2.47582
 Alpha virt. eigenvalues --    2.49607   2.49652   2.50901   2.50949   2.51854
 Alpha virt. eigenvalues --    2.52266   2.53015   2.53478   2.55468   2.55630
 Alpha virt. eigenvalues --    2.56163   2.56608   2.57109   2.57571   2.59168
 Alpha virt. eigenvalues --    2.59733   2.61714   2.61817   2.63727   2.64713
 Alpha virt. eigenvalues --    2.65786   2.68558   2.68828   2.70307   2.72836
 Alpha virt. eigenvalues --    2.76846   2.77232   2.77568   2.80908   2.82742
 Alpha virt. eigenvalues --    2.88526   2.88537   2.89229   2.93952   2.95992
 Alpha virt. eigenvalues --    3.00744   3.02025   3.02654   3.06545   3.07924
 Alpha virt. eigenvalues --    3.07945   3.12002   3.13336   3.15393   3.22956
 Alpha virt. eigenvalues --    3.26618   3.27845   3.29553   3.31363   3.31962
 Alpha virt. eigenvalues --    3.34057   3.37471   3.38015   3.41797   3.44719
 Alpha virt. eigenvalues --    3.45895   3.83236   3.84374   4.00079   4.00314
 Alpha virt. eigenvalues --    4.17941   4.18060  21.66057  21.66250  21.74554
 Alpha virt. eigenvalues --   21.77969  21.80481  21.82131  21.85392  43.04108
 Alpha virt. eigenvalues --   43.04204  43.11933  43.12145
          Condensed to atoms (all electrons):
               1          2          3          4          5          6
     1  O    8.011584   0.598549  -0.126151  -0.126863  -0.005177  -0.000949
     2  C    0.598549   4.857288   0.359563   0.071965  -0.032134  -0.004384
     3  O   -0.126151   0.359563   7.869975  -0.112752  -0.010917  -0.001120
     4  C   -0.126863   0.071965  -0.112752   5.522309   0.233411  -0.028717
     5  C   -0.005177  -0.032134  -0.010917   0.233411   5.213197   0.240275
     6  C   -0.000949  -0.004384  -0.001120  -0.028717   0.240275   5.220772
     7  C    0.000059  -0.001093   0.000010   0.012538  -0.047480   0.240274
     8  C    0.000000  -0.000024  -0.000001  -0.001328   0.012538  -0.028716
     9  C   -0.000000  -0.000010  -0.000000  -0.000024  -0.001093  -0.004384
    10  O    0.000000  -0.000000   0.000000   0.000000   0.000059  -0.000949
    11  O    0.000000  -0.000000   0.000000  -0.000001   0.000010  -0.001121
    12  H    0.002186  -0.022448   0.289005   0.016774  -0.000390   0.000077
    13  H   -0.004712  -0.018951   0.000238   0.403879  -0.025093  -0.010794
    14  H    0.008907  -0.018736   0.013727   0.348239  -0.031148  -0.008624
    15  H   -0.001303   0.008192   0.001658  -0.043690   0.419229  -0.053212
    16  H    0.014151  -0.007943   0.001733  -0.038124   0.396531  -0.034688
    17  H   -0.000024  -0.001343   0.000018  -0.003494  -0.040725   0.414811
    18  H    0.000125   0.000931   0.000005  -0.004089  -0.040038   0.414812
    19  H    0.000015   0.000002  -0.000004  -0.000353  -0.004881  -0.034688
    20  H   -0.000051  -0.000110  -0.000001  -0.000772  -0.001588  -0.053213
    21  H    0.000000  -0.000002   0.000000  -0.000052  -0.000114  -0.008624
    22  H   -0.000000   0.000002   0.000000  -0.000120   0.000688  -0.010795
    23  H   -0.000000  -0.000000   0.000000   0.000000  -0.000002   0.000077
               7          8          9         10         11         12
     1  O    0.000059   0.000000  -0.000000   0.000000   0.000000   0.002186
     2  C   -0.001093  -0.000024  -0.000010  -0.000000  -0.000000  -0.022448
     3  O    0.000010  -0.000001  -0.000000   0.000000   0.000000   0.289005
     4  C    0.012538  -0.001328  -0.000024   0.000000  -0.000001   0.016774
     5  C   -0.047480   0.012538  -0.001093   0.000059   0.000010  -0.000390
     6  C    0.240274  -0.028716  -0.004384  -0.000949  -0.001121   0.000077
     7  C    5.213193   0.233412  -0.032134  -0.005176  -0.010918  -0.000002
     8  C    0.233412   5.522322   0.071957  -0.126867  -0.112755   0.000000
     9  C   -0.032134   0.071957   4.857294   0.598548   0.359567  -0.000000
    10  O   -0.005176  -0.126867   0.598548   8.011593  -0.126150  -0.000000
    11  O   -0.010918  -0.112755   0.359567  -0.126150   7.869966   0.000000
    12  H   -0.000002   0.000000  -0.000000  -0.000000   0.000000   0.382649
    13  H    0.000688  -0.000120   0.000002  -0.000000   0.000000  -0.000434
    14  H   -0.000114  -0.000052  -0.000002   0.000000   0.000000  -0.000732
    15  H   -0.001588  -0.000772  -0.000110  -0.000051  -0.000001  -0.000173
    16  H   -0.004881  -0.000353   0.000002   0.000015  -0.000004  -0.000006
    17  H   -0.040036  -0.004090   0.000931   0.000125   0.000005   0.000003
    18  H   -0.040727  -0.003494  -0.001343  -0.000024   0.000018  -0.000002
    19  H    0.396530  -0.038123  -0.007943   0.014152   0.001733  -0.000000
    20  H    0.419230  -0.043692   0.008192  -0.001303   0.001659   0.000000
    21  H   -0.031149   0.348238  -0.018736   0.008907   0.013727  -0.000000
    22  H   -0.025093   0.403877  -0.018949  -0.004712   0.000238   0.000000
    23  H   -0.000390   0.016775  -0.022448   0.002186   0.289003  -0.000000
              13         14         15         16         17         18
     1  O   -0.004712   0.008907  -0.001303   0.014151  -0.000024   0.000125
     2  C   -0.018951  -0.018736   0.008192  -0.007943  -0.001343   0.000931
     3  O    0.000238   0.013727   0.001658   0.001733   0.000018   0.000005
     4  C    0.403879   0.348239  -0.043690  -0.038124  -0.003494  -0.004089
     5  C   -0.025093  -0.031148   0.419229   0.396531  -0.040725  -0.040038
     6  C   -0.010794  -0.008624  -0.053212  -0.034688   0.414811   0.414812
     7  C    0.000688  -0.000114  -0.001588  -0.004881  -0.040036  -0.040727
     8  C   -0.000120  -0.000052  -0.000772  -0.000353  -0.004090  -0.003494
     9  C    0.000002  -0.000002  -0.000110   0.000002   0.000931  -0.001343
    10  O   -0.000000   0.000000  -0.000051   0.000015   0.000125  -0.000024
    11  O    0.000000   0.000000  -0.000001  -0.000004   0.000005   0.000018
    12  H   -0.000434  -0.000732  -0.000173  -0.000006   0.000003  -0.000002
    13  H    0.489214  -0.020309   0.005854  -0.004435   0.000119   0.003456
    14  H   -0.020309   0.552357  -0.003822   0.008166   0.003285   0.000308
    15  H    0.005854  -0.003822   0.543410  -0.024777  -0.005057   0.007145
    16  H   -0.004435   0.008166  -0.024777   0.546720   0.007062  -0.005724
    17  H    0.000119   0.003285  -0.005057   0.007062   0.557065  -0.032366
    18  H    0.003456   0.000308   0.007145  -0.005724  -0.032366   0.557073
    19  H   -0.000050   0.000194   0.002597   0.000143  -0.005724   0.007062
    20  H    0.000151  -0.000087   0.000244   0.002597   0.007145  -0.005057
    21  H   -0.000025   0.000028  -0.000087   0.000194   0.000308   0.003285
    22  H    0.000018  -0.000025   0.000151  -0.000050   0.003456   0.000119
    23  H    0.000000  -0.000000   0.000000  -0.000000  -0.000002   0.000003
              19         20         21         22         23
     1  O    0.000015  -0.000051   0.000000  -0.000000  -0.000000
     2  C    0.000002  -0.000110  -0.000002   0.000002  -0.000000
     3  O   -0.000004  -0.000001   0.000000   0.000000   0.000000
     4  C   -0.000353  -0.000772  -0.000052  -0.000120   0.000000
     5  C   -0.004881  -0.001588  -0.000114   0.000688  -0.000002
     6  C   -0.034688  -0.053213  -0.008624  -0.010795   0.000077
     7  C    0.396530   0.419230  -0.031149  -0.025093  -0.000390
     8  C   -0.038123  -0.043692   0.348238   0.403877   0.016775
     9  C   -0.007943   0.008192  -0.018736  -0.018949  -0.022448
    10  O    0.014152  -0.001303   0.008907  -0.004712   0.002186
    11  O    0.001733   0.001659   0.013727   0.000238   0.289003
    12  H   -0.000000   0.000000  -0.000000   0.000000  -0.000000
    13  H   -0.000050   0.000151  -0.000025   0.000018   0.000000
    14  H    0.000194  -0.000087   0.000028  -0.000025  -0.000000
    15  H    0.002597   0.000244  -0.000087   0.000151   0.000000
    16  H    0.000143   0.002597   0.000194  -0.000050  -0.000000
    17  H   -0.005724   0.007145   0.000308   0.003456  -0.000002
    18  H    0.007062  -0.005057   0.003285   0.000119   0.000003
    19  H    0.546721  -0.024778   0.008166  -0.004436  -0.000006
    20  H   -0.024778   0.543416  -0.003823   0.005855  -0.000173
    21  H    0.008166  -0.003823   0.552359  -0.020310  -0.000732
    22  H   -0.004436   0.005855  -0.020310   0.489218  -0.000434
    23  H   -0.000006  -0.000173  -0.000732  -0.000434   0.382648
 Mulliken charges:
               1
     1  O   -0.370346
     2  C    0.210688
     3  O   -0.284986
     4  C   -0.248737
     5  C   -0.275156
     6  C   -0.246121
     7  C   -0.275154
     8  C   -0.248734
     9  C    0.210684
    10  O   -0.370351
    11  O   -0.284979
    12  H    0.333494
    13  H    0.181303
    14  H    0.148443
    15  H    0.146161
    16  H    0.143672
    17  H    0.138528
    18  H    0.138523
    19  H    0.143671
    20  H    0.146158
    21  H    0.148443
    22  H    0.181301
    23  H    0.333496
 Sum of Mulliken charges =  -0.00000
 Mulliken charges with hydrogens summed into heavy atoms:
               1
     1  O   -0.370346
     2  C    0.210688
     3  O    0.048507
     4  C    0.081009
     5  C    0.014677
     6  C    0.030930
     7  C    0.014676
     8  C    0.081010
     9  C    0.210684
    10  O   -0.370351
    11  O    0.048517
 Electronic spatial extent (au):  <R**2>=           3912.2195
 Charge=             -0.0000 electrons
 Dipole moment (field-independent basis, Debye):
    X=              0.0001    Y=              0.0000    Z=              2.7333  Tot=              2.7333
 Quadrupole moment (field-independent basis, Debye-Ang):
   XX=            -61.0383   YY=            -72.3460   ZZ=            -67.2374
   XY=             19.7342   XZ=              0.0003   YZ=             -0.0001
 Traceless Quadrupole moment (field-independent basis, Debye-Ang):
   XX=              5.8356   YY=             -5.4721   ZZ=             -0.3635
   XY=             19.7342   XZ=              0.0003   YZ=             -0.0001
 Octapole moment (field-independent basis, Debye-Ang**2):
  XXX=              0.0041  YYY=              0.0000  ZZZ=             -0.2253  XYY=              0.0007
  XXY=              0.0015  XXZ=             -2.4909  XZZ=             -0.0008  YZZ=              0.0001
  YYZ=              3.6300  XYZ=            -37.6393
 Hexadecapole moment (field-independent basis, Debye-Ang**3):
 XXXX=          -3282.2858 YYYY=           -258.2977 ZZZZ=           -242.5966 XXXY=            532.8950
 XXXZ=              0.0073 YYYX=             38.5646 YYYZ=             -0.0002 ZZZX=              0.0013
 ZZZY=              0.0001 XXYY=           -855.3640 XXZZ=           -773.4746 YYZZ=            -78.6202
 XXYZ=             -0.0011 YYXZ=             -0.0002 ZZXY=             32.1687
 N-N= 5.799885167373D+02 E-N=-2.506473063201D+03  KE= 5.725096015276D+02
 No NMR shielding tensors so no spin-rotation constants.
 Leave Link  601 at Mon Feb 22 21:23:15 2021, MaxMem=   104857600 cpu:              10.3 elap:               0.5
 (Enter /sw/arch/RedHatEnterpriseServer7/EB_production/2019/software/Gaussian/g16.c01/l701.exe)
 ... and contract with generalized density number  0.
 Compute integral first derivatives.
 R6Disp: Adding Grimme-D3 dispersion energy 1st derivatives to the gradient.
 PrsmSu:  requested number of processors reduced to:  29 ShMem   1 Linda.
 D1PCM: PCM CHGder 1st derivatives, ID1Alg=3 FixD1E=F DoIter=F DoCFld=F I1PDM=0.
 GePol: Maximum number of non-zero 1st derivatives   =     206
 CoulSu:  requested number of processors reduced to:  28 ShMem   1 Linda.
 CoulSu:  requested number of processors reduced to:  29 ShMem   1 Linda.
 Leave Link  701 at Mon Feb 22 21:23:16 2021, MaxMem=   104857600 cpu:              23.1 elap:               0.8
 (Enter /sw/arch/RedHatEnterpriseServer7/EB_production/2019/software/Gaussian/g16.c01/l702.exe)
 L702 exits ... SP integral derivatives will be done elsewhere.
 Leave Link  702 at Mon Feb 22 21:23:16 2021, MaxMem=   104857600 cpu:               0.9 elap:               0.1
 (Enter /sw/arch/RedHatEnterpriseServer7/EB_production/2019/software/Gaussian/g16.c01/l703.exe)
 Integral derivatives from FoFJK, PRISM(SPDF).
 Compute integral first derivatives, UseDBF=F ICtDFT=           0.
 Calling FoFJK, ICntrl=      2527 FMM=F ISym2X=0 I1Cent= 0 IOpClX= 0 NMat=1 NMatS=1 NMatT=0.
 FoFJK:  IHMeth= 1 ICntrl=    2527 DoSepK=F KAlg= 0 I1Cent=           0 FoldK=F
 IRaf=         0 NMat=       1 IRICut=       1 DoRegI=T DoRafI=F ISym2E= 0 IDoP0=0 IntGTp=1.
 FoFCou: FMM=F IPFlag=           0 FMFlag=      100000 FMFlg1=         800
         NFxFlg=           0 DoJE=F BraDBF=F KetDBF=F FulRan=T
         wScrn=  0.000000 ICntrl=      2527 IOpCl=  0 I1Cent=           0 NGrid=           0
         NMat0=    1 NMatS0=      1 NMatT0=    0 NMatD0=    1 NMtDS0=    0 NMtDT0=    0
 Symmetry not used in FoFCou.
 Leave Link  703 at Mon Feb 22 21:23:18 2021, MaxMem=   104857600 cpu:              62.1 elap:               2.0
 (Enter /sw/arch/RedHatEnterpriseServer7/EB_production/2019/software/Gaussian/g16.c01/l716.exe)
 Dipole        = 3.35606888D-05 1.02013726D-05 1.07537997D+00
 ***** Axes restored to original set *****
 -------------------------------------------------------------------
 Center     Atomic                   Forces (Hartrees/Bohr)
 Number     Number              X              Y              Z
 -------------------------------------------------------------------
      1        8          -0.013685701   -0.015762958   -0.011532789
      2        6           0.050948556    0.055778441    0.023522244
      3        8          -0.025858002   -0.027853444   -0.016692319
      4        6          -0.008641266   -0.020666944   -0.011192167
      5        6          -0.007973869   -0.004024515    0.002859151
      6        6           0.011605667   -0.000382269    0.002204407
      7        6          -0.006094384    0.004498802   -0.005520753
      8        6          -0.010782781    0.021309118    0.007512418
      9        6           0.052316782   -0.059229198   -0.003971680
     10        8          -0.015909335    0.016752981    0.005930023
     11        8          -0.028314185    0.029659640    0.006437855
     12        1           0.001273505    0.002528162    0.018839002
     13        1          -0.001484913    0.003807563    0.002025212
     14        1          -0.004743530   -0.002821791   -0.002818009
     15        1           0.004547037   -0.001592158   -0.001910513
     16        1           0.003455143    0.002218368    0.001749192
     17        1          -0.004365497   -0.001833734   -0.003972926
     18        1          -0.005381987    0.002155842    0.002120711
     19        1           0.003704557   -0.002458952   -0.000393053
     20        1           0.003624955    0.001317734    0.003454821
     21        1          -0.005255531    0.003159545    0.000926603
     22        1          -0.000884488   -0.003728988   -0.002473978
     23        1           0.007899266   -0.002831246   -0.017103453
 -------------------------------------------------------------------
 Cartesian Forces:  Max     0.059229198 RMS     0.016891966
 Leave Link  716 at Mon Feb 22 21:23:18 2021, MaxMem=   104857600 cpu:               0.8 elap:               0.1
 (Enter /sw/arch/RedHatEnterpriseServer7/EB_production/2019/software/Gaussian/g16.c01/l103.exe)

 GradGradGradGradGradGradGradGradGradGradGradGradGradGradGradGradGradGrad
 Berny optimization.
 FormGI is forming the generalized inverse of G from B-inverse, IUseBI=4.
 GSVD:  received Info=                   1 from GESDD.
 Internal  Forces:  Max     0.034545095 RMS     0.008395858
 Search for a local minimum.
 Step number   1 out of a maximum of  122
 All quantities printed in internal units (Hartrees-Bohrs-Radians)
 RMS Force = .83959D-02 SwitMx=.10000D-02 MixMth= 1
 Mixed Optimization -- RFO/linear search
 Second derivative matrix not updated -- first step.
 ITU=  0
     Eigenvalues ---    0.00230   0.00230   0.00230   0.00230   0.01090
     Eigenvalues ---    0.01090   0.01384   0.01384   0.02302   0.02302
     Eigenvalues ---    0.03454   0.03454   0.03552   0.04272   0.04272
     Eigenvalues ---    0.04776   0.04776   0.04799   0.05450   0.05450
     Eigenvalues ---    0.08095   0.08268   0.08268   0.09402   0.09402
     Eigenvalues ---    0.12043   0.12171   0.12171   0.12803   0.12803
     Eigenvalues ---    0.16000   0.16000   0.21959   0.21981   0.21981
     Eigenvalues ---    0.21984   0.21984   0.25000   0.25000   0.25000
     Eigenvalues ---    0.25000   0.27431   0.27432   0.27552   0.27553
     Eigenvalues ---    0.34255   0.34255   0.34333   0.34334   0.34413
     Eigenvalues ---    0.34415   0.34421   0.34421   0.34468   0.34468
     Eigenvalues ---    0.35087   0.35087   0.51372   0.51374   0.54200
     Eigenvalues ---    0.54202   0.82542   0.82544
 RFO step:  Lambda=-2.93460454D-02 EMin= 2.30000000D-03
 Linear search not attempted -- first point.
 Maximum step size (   0.300) exceeded in Quadratic search.
    -- Step size scaled by   0.860
 Iteration  1 RMS(Cart)=  0.04758782 RMS(Int)=  0.00138923
 Iteration  2 RMS(Cart)=  0.00198729 RMS(Int)=  0.00006156
 Iteration  3 RMS(Cart)=  0.00000136 RMS(Int)=  0.00006155
 Iteration  4 RMS(Cart)=  0.00000000 RMS(Int)=  0.00006155
 ITry= 1 IFail=0 DXMaxC= 2.02D-01 DCOld= 1.00D+10 DXMaxT= 3.00D-01 DXLimC= 3.00D+00 Rises=F
 Variable       Old X    -DE/DX   Delta X   Delta X   Delta X     New X
                                 (Linear)    (Quad)   (Total)
    R1        2.36572  -0.02347   0.00000  -0.02362  -0.02362   2.34210
    R2        2.55850  -0.00851   0.00000  -0.01282  -0.01282   2.54568
    R3        2.78833   0.01334   0.00000   0.03019   0.03019   2.81852
    R4        1.85204  -0.00386   0.00000  -0.00611  -0.00611   1.84593
    R5        2.93129  -0.00385   0.00000  -0.01087  -0.01087   2.92042
    R6        2.06625   0.00398   0.00000   0.00917   0.00917   2.07543
    R7        2.06548   0.00563   0.00000   0.01296   0.01296   2.07844
    R8        2.93399  -0.00872   0.00000  -0.02472  -0.02472   2.90927
    R9        2.06770   0.00494   0.00000   0.01141   0.01141   2.07912
   R10        2.06902   0.00385   0.00000   0.00892   0.00892   2.07794
   R11        2.93398  -0.00872   0.00000  -0.02471  -0.02471   2.90927
   R12        2.06636   0.00589   0.00000   0.01357   0.01357   2.07993
   R13        2.06638   0.00588   0.00000   0.01355   0.01355   2.07994
   R14        2.93127  -0.00385   0.00000  -0.01085  -0.01085   2.92041
   R15        2.06902   0.00386   0.00000   0.00892   0.00892   2.07794
   R16        2.06772   0.00494   0.00000   0.01140   0.01140   2.07912
   R17        2.78834   0.01334   0.00000   0.03018   0.03018   2.81852
   R18        2.06547   0.00564   0.00000   0.01297   0.01297   2.07844
   R19        2.06625   0.00398   0.00000   0.00918   0.00918   2.07543
   R20        2.36573  -0.02347   0.00000  -0.02362  -0.02362   2.34211
   R21        2.55848  -0.00851   0.00000  -0.01281  -0.01281   2.54567
   R22        1.85205  -0.00386   0.00000  -0.00612  -0.00612   1.84593
    A1        2.07247   0.02107   0.00000   0.06489   0.06485   2.13732
    A2        2.10762   0.01113   0.00000   0.03428   0.03425   2.14186
    A3        2.10310  -0.03220   0.00000  -0.09920  -0.09923   2.00387
    A4        2.09952  -0.03455   0.00000  -0.15698  -0.15698   1.94254
    A5        1.95481  -0.00383   0.00000  -0.01365  -0.01375   1.94106
    A6        1.89731  -0.00129   0.00000  -0.01734  -0.01743   1.87988
    A7        1.90416   0.00356   0.00000   0.02390   0.02398   1.92814
    A8        1.91709   0.00181   0.00000   0.00176   0.00151   1.91860
    A9        1.90403   0.00063   0.00000   0.00725   0.00727   1.91129
   A10        1.88512  -0.00077   0.00000  -0.00142  -0.00133   1.88379
   A11        1.97271  -0.00605   0.00000  -0.02037  -0.02032   1.95239
   A12        1.90046   0.00202   0.00000   0.00692   0.00697   1.90743
   A13        1.90386   0.00092   0.00000  -0.00052  -0.00046   1.90340
   A14        1.89878   0.00210   0.00000   0.00937   0.00937   1.90815
   A15        1.89837   0.00291   0.00000   0.01275   0.01269   1.91106
   A16        1.88792  -0.00178   0.00000  -0.00786  -0.00792   1.87999
   A17        1.95433  -0.00366   0.00000  -0.01135  -0.01133   1.94301
   A18        1.90601   0.00135   0.00000   0.00546   0.00547   1.91148
   A19        1.90351   0.00129   0.00000   0.00508   0.00509   1.90860
   A20        1.90352   0.00129   0.00000   0.00508   0.00509   1.90861
   A21        1.90600   0.00135   0.00000   0.00546   0.00548   1.91148
   A22        1.88938  -0.00157   0.00000  -0.00981  -0.00982   1.87956
   A23        1.97272  -0.00605   0.00000  -0.02037  -0.02033   1.95239
   A24        1.89836   0.00291   0.00000   0.01275   0.01270   1.91106
   A25        1.89879   0.00210   0.00000   0.00936   0.00936   1.90815
   A26        1.90387   0.00092   0.00000  -0.00053  -0.00047   1.90340
   A27        1.90046   0.00202   0.00000   0.00692   0.00698   1.90743
   A28        1.88791  -0.00178   0.00000  -0.00786  -0.00792   1.87999
   A29        1.95482  -0.00384   0.00000  -0.01365  -0.01376   1.94107
   A30        1.90404   0.00063   0.00000   0.00724   0.00726   1.91130
   A31        1.91708   0.00182   0.00000   0.00177   0.00152   1.91860
   A32        1.90415   0.00356   0.00000   0.02391   0.02398   1.92814
   A33        1.89731  -0.00129   0.00000  -0.01734  -0.01743   1.87988
   A34        1.88511  -0.00077   0.00000  -0.00141  -0.00133   1.88379
   A35        2.10761   0.01113   0.00000   0.03428   0.03425   2.14186
   A36        2.10310  -0.03220   0.00000  -0.09920  -0.09923   2.00387
   A37        2.07247   0.02107   0.00000   0.06488   0.06485   2.13732
   A38        2.09951  -0.03454   0.00000  -0.15698  -0.15698   1.94254
    D1        0.01054  -0.00036   0.00000  -0.00714  -0.00723   0.00331
    D2       -3.12797   0.00035   0.00000   0.00684   0.00694  -3.12104
    D3       -1.13887   0.00103   0.00000   0.02030   0.02016  -1.11871
    D4        0.98268  -0.00005   0.00000   0.00187   0.00198   0.98465
    D5        3.03452   0.00030   0.00000   0.00379   0.00372   3.03824
    D6        1.99958   0.00032   0.00000   0.00608   0.00601   2.00559
    D7       -2.16206  -0.00076   0.00000  -0.01235  -0.01218  -2.17423
    D8       -0.11021  -0.00041   0.00000  -0.01043  -0.01044  -0.12065
    D9       -3.09854  -0.00186   0.00000  -0.02310  -0.02307  -3.12161
   D10       -0.98629  -0.00174   0.00000  -0.01970  -0.01969  -1.00598
   D11        1.07053  -0.00220   0.00000  -0.02548  -0.02550   1.04503
   D12        1.07450   0.00107   0.00000   0.00668   0.00670   1.08121
   D13       -3.09643   0.00119   0.00000   0.01008   0.01008  -3.08635
   D14       -1.03961   0.00072   0.00000   0.00430   0.00427  -1.03534
   D15       -0.98867   0.00056   0.00000   0.00306   0.00307  -0.98560
   D16        1.12358   0.00068   0.00000   0.00646   0.00645   1.13003
   D17       -3.10278   0.00022   0.00000   0.00067   0.00064  -3.10214
   D18        3.13554   0.00030   0.00000   0.00315   0.00317   3.13871
   D19        1.02545   0.00013   0.00000   0.00041   0.00043   1.02587
   D20       -1.03612   0.00050   0.00000   0.00614   0.00615  -1.02997
   D21        1.02234   0.00022   0.00000   0.00112   0.00115   1.02349
   D22       -1.08776   0.00006   0.00000  -0.00162  -0.00159  -1.08934
   D23        3.13386   0.00042   0.00000   0.00411   0.00414   3.13800
   D24       -1.03043  -0.00046   0.00000  -0.00190  -0.00195  -1.03237
   D25       -3.14052  -0.00062   0.00000  -0.00464  -0.00469   3.13798
   D26        1.08110  -0.00026   0.00000   0.00109   0.00104   1.08214
   D27        3.13553   0.00030   0.00000   0.00316   0.00317   3.13870
   D28       -1.03042  -0.00046   0.00000  -0.00190  -0.00194  -1.03237
   D29        1.02233   0.00022   0.00000   0.00113   0.00116   1.02348
   D30       -1.03612   0.00050   0.00000   0.00614   0.00615  -1.02997
   D31        1.08111  -0.00026   0.00000   0.00109   0.00104   1.08215
   D32        3.13386   0.00042   0.00000   0.00411   0.00414   3.13800
   D33        1.02545   0.00013   0.00000   0.00041   0.00042   1.02588
   D34       -3.14050  -0.00062   0.00000  -0.00465  -0.00469   3.13800
   D35       -1.08775   0.00006   0.00000  -0.00163  -0.00159  -1.08934
   D36       -3.09855  -0.00186   0.00000  -0.02310  -0.02307  -3.12161
   D37       -0.98867   0.00056   0.00000   0.00306   0.00307  -0.98560
   D38        1.07449   0.00107   0.00000   0.00668   0.00671   1.08120
   D39        1.07052  -0.00220   0.00000  -0.02548  -0.02550   1.04502
   D40       -3.10279   0.00022   0.00000   0.00067   0.00064  -3.10215
   D41       -1.03962   0.00072   0.00000   0.00430   0.00428  -1.03535
   D42       -0.98629  -0.00174   0.00000  -0.01970  -0.01969  -1.00598
   D43        1.12359   0.00068   0.00000   0.00645   0.00645   1.13003
   D44       -3.09643   0.00119   0.00000   0.01008   0.01008  -3.08635
   D45       -1.13886   0.00103   0.00000   0.02029   0.02015  -1.11871
   D46        1.99957   0.00032   0.00000   0.00609   0.00602   2.00559
   D47        3.03451   0.00030   0.00000   0.00378   0.00372   3.03823
   D48       -0.11024  -0.00041   0.00000  -0.01042  -0.01042  -0.12066
   D49        0.98269  -0.00005   0.00000   0.00186   0.00197   0.98466
   D50       -2.16206  -0.00076   0.00000  -0.01234  -0.01217  -2.17423
   D51       -3.12797   0.00035   0.00000   0.00684   0.00693  -3.12104
   D52        0.01052  -0.00036   0.00000  -0.00713  -0.00722   0.00330
         Item               Value     Threshold  Converged?
 Maximum Force            0.034545     0.000450     NO 
 RMS     Force            0.008396     0.000300     NO 
 Maximum Displacement     0.202314     0.001800     NO 
 RMS     Displacement     0.048781     0.001200     NO 
 Predicted change in Energy=-1.578510D-02
 Lowest energy point so far.  Saving SCF results.
 GradGradGradGradGradGradGradGradGradGradGradGradGradGradGradGradGradGrad

 Leave Link  103 at Mon Feb 22 21:23:18 2021, MaxMem=   104857600 cpu:               4.4 elap:               0.2
 (Enter /sw/arch/RedHatEnterpriseServer7/EB_production/2019/software/Gaussian/g16.c01/l202.exe)
                          Input orientation:                          
 ---------------------------------------------------------------------
 Center     Atomic      Atomic             Coordinates (Angstroms)
 Number     Number       Type             X           Y           Z
 ---------------------------------------------------------------------
      1          8           0       -0.329612    2.834898   -0.611468
      2          6           0       -0.993116    2.121075   -1.377168
      3          8           0       -0.853518    2.172188   -2.716056
      4          6           0       -1.989537    1.124211   -0.889350
      5          6           0       -1.306581    0.005553   -0.070505
      6          6           0       -2.318384   -1.047503    0.416787
      7          6           0       -1.624689   -2.157565    1.227139
      8          6           0       -2.630167   -3.219782    1.726158
      9          6           0       -1.947328   -4.272783    2.532065
     10          8           0       -1.097458   -5.037194    2.053022
     11          8           0       -2.310111   -4.316440    3.828672
     12          1           0       -0.177201    2.826711   -2.977552
     13          1           0       -2.715795    1.657572   -0.261440
     14          1           0       -2.534785    0.679837   -1.734889
     15          1           0       -0.541833   -0.484246   -0.691588
     16          1           0       -0.797833    0.453814    0.795149
     17          1           0       -2.830517   -1.493821   -0.449213
     18          1           0       -3.081570   -0.558549    1.041218
     19          1           0       -0.864890   -2.648223    0.601776
     20          1           0       -1.109829   -1.710535    2.090606
     21          1           0       -3.416763   -2.730899    2.319419
     22          1           0       -3.109600   -3.712843    0.869868
     23          1           0       -1.819784   -5.009969    4.311150
 ---------------------------------------------------------------------
                    Distance matrix (angstroms):
                    1          2          3          4          5
     1  O    0.000000
     2  C    1.239387   0.000000
     3  O    2.267809   1.347116   0.000000
     4  C    2.399796   1.491496   2.392834   0.000000
[...]
 Total non electrostatic                  (kcal/mol) =       9.65
 --------------------------------------------------------------------
 Partition over spheres:
 Sphere  on Atom  Surface  Charge   GEl     GCav    GDR
    1      O1      19.42   0.242   -3.92    2.41   -1.61
    2      C2      10.72  -0.031   -0.18    1.26   -0.74
    3      O3      15.94   0.096   -0.70    1.98   -1.44
    4      C4       8.65  -0.023   -0.19    1.02   -0.33
    5      C5       7.68   0.006   -0.12    0.90   -0.25
    6      C6       8.10   0.004   -0.00    0.95   -0.32
    7      C7       7.68   0.007   -0.13    0.90   -0.25
    8      C8       8.65  -0.023   -0.19    1.02   -0.33
    9      C9      10.72  -0.031   -0.18    1.26   -0.74
   10      O10     19.42   0.242   -3.92    2.41   -1.61
   11      O11     15.94   0.096   -0.70    1.98   -1.44
   12      H12      8.46  -0.149   -2.62    1.19   -0.88
   13      H13      6.58  -0.041   -0.43    0.93   -0.76
   14      H14      6.58  -0.041   -0.43    0.93   -0.76
   15      H15      6.56  -0.021   -0.04    0.93   -0.70
   16      H16      6.56  -0.021   -0.04    0.93   -0.70
   17      H17      6.59  -0.019   -0.20    0.93   -0.72
   18      H18      6.59  -0.019   -0.20    0.93   -0.72
   19      H19      6.56  -0.021   -0.04    0.93   -0.70
   20      H20      6.56  -0.021   -0.04    0.93   -0.70
   21      H21      6.58  -0.041   -0.43    0.93   -0.76
   22      H22      6.58  -0.041   -0.43    0.93   -0.76
   23      H23      8.46  -0.149   -2.62    1.19   -0.88
 --------------------------------------------------------------------
 - cavitation energy not included in the total energy.
 - dispersion energy not included in the total energy.
 - repulsion  energy not included in the total energy.
 After PCM corrections, the energy is  -575.151076635     a.u.
 --------------------------------------------------------------------
 Writing COSMO formatted file "WLJVNTCWHIRURA-UHFFFAOYSA-N.cosmo"
 Recomputed dielectric energy= -0.028313 old= -0.028285 diff=-2.81D-05

 **********************************************************************

            Population analysis using the SCF Density.

 **********************************************************************

 Orbital symmetries:
       Occupied  (A) (A) (A) (A) (A) (A) (A) (A) (A) (A) (A) (A)
                 (A) (A) (A) (A) (A) (A) (A) (A) (A) (A) (A) (A)
                 (A) (A) (A) (A) (A) (A) (A) (A) (A) (A) (A) (A)
                 (A) (A) (A) (A) (A) (A) (A)
       Virtual   (A) (A) (A) (A) (A) (A) (A) (A) (A) (A) (A) (A)
                 (A) (A) (A) (A) (A) (A) (A) (A) (A) (A) (A) (A)
                 (A) (A) (A) (A) (A) (A) (A) (A) (A) (A) (A) (A)
                 (A) (A) (A) (A) (A) (A) (A) (A) (A) (A) (A) (A)
                 (A) (A) (A) (A) (A) (A) (A) (A) (A) (A) (A) (A)
                 (A) (A) (A) (A) (A) (A) (A) (A) (A) (A) (A) (A)
                 (A) (A) (A) (A) (A) (A) (A) (A) (A) (A) (A) (A)
                 (A) (A) (A) (A) (A) (A) (A) (A) (A) (A) (A) (A)
                 (A) (A) (A) (A) (A) (A) (A) (A) (A) (A) (A) (A)
                 (A) (A) (A) (A) (A) (A) (A) (A) (A) (A) (A) (A)
                 (A) (A) (A) (A) (A) (A) (A) (A) (A) (A) (A) (A)
                 (A) (A) (A) (A) (A) (A) (A) (A) (A) (A) (A) (A)
                 (A) (A) (A) (A) (A) (A) (A) (A) (A) (A) (A) (A)
                 (A) (A) (A) (A) (A) (A) (A) (A) (A) (A) (A) (A)
                 (A) (A) (A) (A) (A) (A) (A) (A) (A) (A) (A) (A)
                 (A) (A) (A) (A) (A) (A) (A) (A) (A) (A) (A) (A)
                 (A) (A) (A) (A) (A) (A) (A) (A) (A) (A) (A) (A)
                 (A) (A) (A) (A) (A) (A) (A) (A) (A) (A) (A) (A)
                 (A) (A) (A) (A) (A) (A) (A) (A) (A) (A) (A) (A)
                 (A) (A) (A) (A) (A) (A) (A) (A) (A) (A)
 The electronic state is 1-A.
 Alpha  occ. eigenvalues --  -18.81871 -18.81871 -18.77012 -18.77012 -10.03243
 Alpha  occ. eigenvalues --  -10.03242  -9.91077  -9.91077  -9.89608  -9.89607
 Alpha  occ. eigenvalues --   -9.89320  -1.02086  -1.02085  -0.93917  -0.93916
 Alpha  occ. eigenvalues --   -0.74359  -0.71604  -0.66398  -0.60567  -0.55633
 Alpha  occ. eigenvalues --   -0.52075  -0.51861  -0.45503  -0.44692  -0.44520
 Alpha  occ. eigenvalues --   -0.43659  -0.43299  -0.42942  -0.40300  -0.37233
 Alpha  occ. eigenvalues --   -0.37108  -0.36706  -0.35550  -0.33529  -0.33066
 Alpha  occ. eigenvalues --   -0.30274  -0.29935  -0.29823  -0.29419  -0.29122
 Alpha  occ. eigenvalues --   -0.28271  -0.24863  -0.24825
 Alpha virt. eigenvalues --   -0.04599  -0.04529   0.02068   0.02733   0.03534
 Alpha virt. eigenvalues --    0.05294   0.05889   0.05964   0.08782   0.09994
 Alpha virt. eigenvalues --    0.10052   0.11829   0.11957   0.13373   0.13584
 Alpha virt. eigenvalues --    0.13936   0.13979   0.15849   0.15979   0.16986
 Alpha virt. eigenvalues --    0.17562   0.17909   0.20787   0.21590   0.22946
 Alpha virt. eigenvalues --    0.23577   0.23945   0.26118   0.26177   0.26658
 Alpha virt. eigenvalues --    0.27221   0.28750   0.30165   0.31363   0.31512
 Alpha virt. eigenvalues --    0.33093   0.33752   0.34328   0.36529   0.37257
 Alpha virt. eigenvalues --    0.37463   0.37715   0.37939   0.39752   0.40703
 Alpha virt. eigenvalues --    0.41482   0.41624   0.41898   0.41932   0.43596
 Alpha virt. eigenvalues --    0.43644   0.43796   0.44343   0.44372   0.45598
 Alpha virt. eigenvalues --    0.47267   0.47314   0.48082   0.48134   0.48691
 Alpha virt. eigenvalues --    0.49495   0.51856   0.53166   0.54703   0.55043
 Alpha virt. eigenvalues --    0.55376   0.58373   0.58740   0.62257   0.64464
 Alpha virt. eigenvalues --    0.64708   0.67424   0.69424   0.71131   0.75863
 Alpha virt. eigenvalues --    0.76926   0.78612   0.82655   0.89931   0.92226
 Alpha virt. eigenvalues --    1.05645   1.08590   1.12876   1.14451   1.16999
 Alpha virt. eigenvalues --    1.18401   1.18605   1.23204   1.23241   1.23366
 Alpha virt. eigenvalues --    1.24051   1.24319   1.26869   1.29045   1.30214
 Alpha virt. eigenvalues --    1.30859   1.31399   1.31515   1.32527   1.32992
 Alpha virt. eigenvalues --    1.33171   1.36545   1.37478   1.37513   1.38324
 Alpha virt. eigenvalues --    1.41595   1.42282   1.46160   1.46992   1.48190
 Alpha virt. eigenvalues --    1.49462   1.49640   1.51021   1.52202   1.53674
 Alpha virt. eigenvalues --    1.54337   1.55071   1.58987   1.61523   1.63496
 Alpha virt. eigenvalues --    1.65593   1.66330   1.66401   1.68995   1.69491
 Alpha virt. eigenvalues --    1.71972   1.72338   1.74694   1.76456   1.77901
 Alpha virt. eigenvalues --    1.78223   1.79605   1.80144   1.80678   1.80754
 Alpha virt. eigenvalues --    1.83326   1.87919   1.91377   1.91643   1.97446
 Alpha virt. eigenvalues --    2.00546   2.01250   2.02092   2.05255   2.07891
 Alpha virt. eigenvalues --    2.09935   2.10285   2.11747   2.16100   2.16835
 Alpha virt. eigenvalues --    2.17481   2.21433   2.22454   2.27416   2.31293
 Alpha virt. eigenvalues --    2.31605   2.32194   2.35043   2.39830   2.40627
 Alpha virt. eigenvalues --    2.43359   2.44112   2.45831   2.47118   2.47535
 Alpha virt. eigenvalues --    2.47737   2.49837   2.50028   2.50477   2.51289
 Alpha virt. eigenvalues --    2.52461   2.53179   2.54188   2.54384   2.55821
 Alpha virt. eigenvalues --    2.56083   2.56821   2.57839   2.59234   2.59373
 Alpha virt. eigenvalues --    2.60053   2.61280   2.63115   2.63658   2.64464
 Alpha virt. eigenvalues --    2.66435   2.67919   2.70509   2.72280   2.73596
 Alpha virt. eigenvalues --    2.79960   2.79992   2.80012   2.81057   2.84415
 Alpha virt. eigenvalues --    2.85478   2.85514   2.91083   3.00816   3.00938
 Alpha virt. eigenvalues --    3.01762   3.03130   3.03825   3.05548   3.10063
 Alpha virt. eigenvalues --    3.10220   3.13692   3.16813   3.21507   3.21891
 Alpha virt. eigenvalues --    3.24971   3.25662   3.27955   3.30259   3.31137
 Alpha virt. eigenvalues --    3.33954   3.37252   3.39831   3.41064   3.43478
 Alpha virt. eigenvalues --    3.48096   3.80159   3.80278   4.08170   4.08385
 Alpha virt. eigenvalues --    4.18511   4.18516  21.68145  21.69174  21.72248
 Alpha virt. eigenvalues --   21.75981  21.81247  21.85442  21.87519  43.04579
 Alpha virt. eigenvalues --   43.06935  43.15252  43.17514
          Condensed to atoms (all electrons):
               1          2          3          4          5          6
     1  O    7.968894   0.621276  -0.105539  -0.169083   0.035860  -0.000513
     2  C    0.621276   4.851827   0.359298  -0.029869   0.057613  -0.007027
     3  O   -0.105539   0.359298   7.903693  -0.180763   0.016118  -0.000556
     4  C   -0.169083  -0.029869  -0.180763   5.903052  -0.000708   0.031862
     5  C    0.035860   0.057613   0.016118  -0.000708   5.403540   0.097229
     6  C   -0.000513  -0.007027  -0.000556   0.031862   0.097229   5.365857
     7  C    0.000167   0.000746   0.000023   0.000719  -0.005796   0.097232
     8  C    0.000001   0.000007  -0.000000   0.000840   0.000726   0.031831
     9  C   -0.000000  -0.000005   0.000000   0.000007   0.000745  -0.007012
    10  O    0.000000  -0.000000  -0.000000   0.000001   0.000166  -0.000507
    11  O   -0.000000   0.000000  -0.000000  -0.000000   0.000023  -0.000555
    12  H    0.002377  -0.017286   0.282712   0.019902  -0.001904   0.000086
    13  H    0.002000  -0.010257   0.005625   0.380901  -0.034388  -0.003564
    14  H    0.002007  -0.010282   0.005638   0.380910  -0.034403  -0.003564
    15  H    0.003152  -0.009609   0.000152  -0.028218   0.407974  -0.035413
    16  H    0.003178  -0.009617   0.000154  -0.028207   0.407910  -0.035360
    17  H    0.000050   0.000162   0.000001  -0.006963  -0.039063   0.415164
    18  H    0.000050   0.000163   0.000001  -0.006970  -0.039065   0.415158
    19  H   -0.000021  -0.000097  -0.000000   0.000313  -0.007196  -0.035333
    20  H   -0.000021  -0.000097  -0.000000   0.000312  -0.007170  -0.035384
    21  H   -0.000000  -0.000001   0.000000  -0.000055  -0.000002  -0.003558
    22  H   -0.000000  -0.000001   0.000000  -0.000055  -0.000000  -0.003559
    23  H    0.000000  -0.000000   0.000000   0.000000  -0.000004   0.000086
               7          8          9         10         11         12
     1  O    0.000167   0.000001  -0.000000   0.000000  -0.000000   0.002377
     2  C    0.000746   0.000007  -0.000005  -0.000000   0.000000  -0.017286
     3  O    0.000023  -0.000000   0.000000  -0.000000  -0.000000   0.282712
     4  C    0.000719   0.000840   0.000007   0.000001  -0.000000   0.019902
     5  C   -0.005796   0.000726   0.000745   0.000166   0.000023  -0.001904
     6  C    0.097232   0.031831  -0.007012  -0.000507  -0.000555   0.000086
     7  C    5.403664  -0.000733   0.057594   0.035888   0.016121  -0.000004
     8  C   -0.000733   5.902975  -0.029754  -0.169084  -0.180747   0.000000
     9  C    0.057594  -0.029754   4.851738   0.621230   0.359289  -0.000000
    10  O    0.035888  -0.169084   0.621230   7.968912  -0.105530   0.000000
    11  O    0.016121  -0.180747   0.359289  -0.105530   7.903676   0.000000
    12  H   -0.000004   0.000000  -0.000000   0.000000   0.000000   0.384804
    13  H   -0.000000  -0.000055  -0.000001  -0.000000   0.000000  -0.000390
    14  H   -0.000002  -0.000055  -0.000001  -0.000000   0.000000  -0.000389
    15  H   -0.007171   0.000311  -0.000097  -0.000021  -0.000000   0.000003
    16  H   -0.007193   0.000312  -0.000097  -0.000021  -0.000000   0.000003
    17  H   -0.039065  -0.006975   0.000163   0.000050   0.000001  -0.000001
    18  H   -0.039063  -0.006965   0.000162   0.000050   0.000001  -0.000001
    19  H    0.407919  -0.028197  -0.009628   0.003164   0.000153   0.000000
    20  H    0.407962  -0.028244  -0.009604   0.003158   0.000152   0.000000
    21  H   -0.034399   0.380903  -0.010280   0.002006   0.005636   0.000000
    22  H   -0.034392   0.380903  -0.010266   0.002001   0.005626   0.000000
    23  H   -0.001904   0.019900  -0.017284   0.002376   0.282714  -0.000000
              13         14         15         16         17         18
     1  O    0.002000   0.002007   0.003152   0.003178   0.000050   0.000050
     2  C   -0.010257  -0.010282  -0.009609  -0.009617   0.000162   0.000163
     3  O    0.005625   0.005638   0.000152   0.000154   0.000001   0.000001
     4  C    0.380901   0.380910  -0.028218  -0.028207  -0.006963  -0.006970
     5  C   -0.034388  -0.034403   0.407974   0.407910  -0.039063  -0.039065
     6  C   -0.003564  -0.003564  -0.035413  -0.035360   0.415164   0.415158
     7  C   -0.000000  -0.000002  -0.007171  -0.007193  -0.039065  -0.039063
     8  C   -0.000055  -0.000055   0.000311   0.000312  -0.006975  -0.006965
     9  C   -0.000001  -0.000001  -0.000097  -0.000097   0.000163   0.000162
    10  O   -0.000000  -0.000000  -0.000021  -0.000021   0.000050   0.000050
    11  O    0.000000   0.000000  -0.000000  -0.000000   0.000001   0.000001
    12  H   -0.000390  -0.000389   0.000003   0.000003  -0.000001  -0.000001
    13  H    0.486143  -0.015233   0.005695  -0.003134   0.000536   0.002902
    14  H   -0.015233   0.486160  -0.003136   0.005697   0.002899   0.000536
    15  H    0.005695  -0.003136   0.549962  -0.029666  -0.006759   0.007693
    16  H   -0.003134   0.005697  -0.029666   0.550013   0.007692  -0.006763
    17  H    0.000536   0.002899  -0.006759   0.007692   0.569642  -0.038867
    18  H    0.002902   0.000536   0.007693  -0.006763  -0.038867   0.569648
    19  H   -0.000057   0.000148   0.004225   0.000091  -0.006765   0.007691
    20  H    0.000148  -0.000057   0.000090   0.004223   0.007692  -0.006761
    21  H   -0.000029   0.000019  -0.000057   0.000148   0.000536   0.002899
    22  H    0.000019  -0.000029   0.000148  -0.000057   0.002902   0.000536
    23  H    0.000000   0.000000   0.000000   0.000000  -0.000001  -0.000001
              19         20         21         22         23
     1  O   -0.000021  -0.000021  -0.000000  -0.000000   0.000000
     2  C   -0.000097  -0.000097  -0.000001  -0.000001  -0.000000
     3  O   -0.000000  -0.000000   0.000000   0.000000   0.000000
     4  C    0.000313   0.000312  -0.000055  -0.000055   0.000000
     5  C   -0.007196  -0.007170  -0.000002  -0.000000  -0.000004
     6  C   -0.035333  -0.035384  -0.003558  -0.003559   0.000086
     7  C    0.407919   0.407962  -0.034399  -0.034392  -0.001904
     8  C   -0.028197  -0.028244   0.380903   0.380903   0.019900
     9  C   -0.009628  -0.009604  -0.010280  -0.010266  -0.017284
    10  O    0.003164   0.003158   0.002006   0.002001   0.002376
    11  O    0.000153   0.000152   0.005636   0.005626   0.282714
    12  H    0.000000   0.000000   0.000000   0.000000  -0.000000
    13  H   -0.000057   0.000148  -0.000029   0.000019   0.000000
    14  H    0.000148  -0.000057   0.000019  -0.000029   0.000000
    15  H    0.004225   0.000090  -0.000057   0.000148   0.000000
    16  H    0.000091   0.004223   0.000148  -0.000057   0.000000
    17  H   -0.006765   0.007692   0.000536   0.002902  -0.000001
    18  H    0.007691  -0.006761   0.002899   0.000536  -0.000001
    19  H    0.549952  -0.029682   0.005696  -0.003133   0.000003
    20  H   -0.029682   0.549985  -0.003138   0.005696   0.000003
    21  H    0.005696  -0.003138   0.486164  -0.015233  -0.000390
    22  H   -0.003133   0.005696  -0.015233   0.486134  -0.000390
    23  H    0.000003   0.000003  -0.000390  -0.000390   0.384810
 Mulliken charges:
               1
     1  O   -0.363835
     2  C    0.203053
     3  O   -0.286555
     4  C   -0.267930
     5  C   -0.258201
     6  C   -0.282599
     7  C   -0.258314
     8  C   -0.267900
     9  C    0.203099
    10  O   -0.363842
    11  O   -0.286558
    12  H    0.330088
    13  H    0.183137
    14  H    0.183134
    15  H    0.140741
    16  H    0.140695
    17  H    0.136968
    18  H    0.136967
    19  H    0.140754
    20  H    0.140735
    21  H    0.183133
    22  H    0.183147
    23  H    0.330082
 Sum of Mulliken charges =  -0.00000
 Mulliken charges with hydrogens summed into heavy atoms:
               1
     1  O   -0.363835
     2  C    0.203053
     3  O    0.043533
     4  C    0.098341
     5  C    0.023235
     6  C   -0.008664
     7  C    0.023175
     8  C    0.098381
     9  C    0.203099
    10  O   -0.363842
    11  O    0.043524
 Electronic spatial extent (au):  <R**2>=           3962.7790
 Charge=             -0.0000 electrons
 Dipole moment (field-independent basis, Debye):
    X=             -0.0001    Y=              4.5252    Z=              0.0005  Tot=              4.5252
 Quadrupole moment (field-independent basis, Debye-Ang):
   XX=            -54.6259   YY=            -78.0073   ZZ=            -64.0306
   XY=              0.0004   XZ=             -0.0064   YZ=             -0.0003
 Traceless Quadrupole moment (field-independent basis, Debye-Ang):
   XX=             10.9287   YY=            -12.4527   ZZ=              1.5240
   XY=              0.0004   XZ=             -0.0064   YZ=             -0.0003
 Octapole moment (field-independent basis, Debye-Ang**2):
  XXX=              0.0051  YYY=             13.1567  ZZZ=              0.0008  XYY=              0.0000
  XXY=             30.7163  XXZ=              0.0088  XZZ=              0.0003  YZZ=              0.5857
  YYZ=              0.0011  XYZ=              0.0285
 Hexadecapole moment (field-independent basis, Debye-Ang**3):
 XXXX=          -3030.5531 YYYY=           -359.6653 ZZZZ=            -96.2597 XXXY=             -0.0035
 XXXZ=             -0.0930 YYYX=              0.0009 YYYZ=             -0.0008 ZZZX=             -0.0012
 ZZZY=             -0.0007 XXYY=          -1014.4251 XXZZ=           -744.0241 YYZZ=            -66.9780
 XXYZ=             -0.0019 YYXZ=             -0.0238 ZZXY=              0.0002
 N-N= 5.809917143620D+02 E-N=-2.508550184495D+03  KE= 5.725857180082D+02
 Unable to Open any file for archive entry.
 1\1\GINC-TCN1744\SP\RBP86\TZVP\C7H12O4\ELENAA\22-Feb-2021\0\\# BP86/TZ
 VP SCRF=COSMORS geom=CHECKPOINT guess=CHECKPOINT\\COSMO-file for #WLJV
 NTCWHIRURA-UHFFFAOYSA-N\\0,1\O,0,0.3092637808,2.0319934809,-1.43627022
 3\C,0,-0.8986155087,2.0030912276,-1.6143994968\O,0,-1.5466286899,2.914
 033964,-2.3980830976\C,0,-1.8627360033,0.9979785045,-1.0270859341\C,0,
 -1.1932142318,-0.0508918226,-0.1379659784\C,0,-2.202478668,-1.05138158
 98,0.4387367036\C,0,-1.5404102806,-2.107739033,1.3320200325\C,0,-2.554
 5958412,-3.1003144895,1.902230598\C,0,-1.9386317137,-4.1582343213,2.78
 8859911\O,0,-0.7537354911,-4.267096407,3.0640096472\O,0,-2.8854285618,
 -5.0158908119,3.2704191646\H,0,-0.8717262849,3.5349643564,-2.747735619
 \H,0,-2.6299144443,1.5614002619,-0.4688480359\H,0,-2.3996072049,0.5237
 301398,-1.8664169493\H,0,-0.4273556066,-0.5888565234,-0.7206976116\H,0
 ,-0.6586330867,0.4538846094,0.6835786754\H,0,-2.7380234988,-1.55182926
 43,-0.3879578079\H,0,-2.9695542274,-0.5073907832,1.0186925567\H,0,-0.7
 763988746,-2.6559340561,0.7564498427\H,0,-1.0073885031,-1.6131914958,2
 .1607732582\H,0,-3.3292048005,-2.5822144418,2.493138812\H,0,-3.0994260
 092,-3.6198878597,1.0954842935\H,0,-2.4264562497,-5.6747136451,3.83486
 7258\\Version=ES64L-G16RevC.01\State=1-A\HF=-575.1510766\RMSD=3.905e-0
 9\Dipole=-1.7482758,0.0583258,-0.3313514\Quadrupole=-8.7577342,5.65986
 27,3.0978715,1.1018198,-2.4474413,-3.1844428\PG=C01 [X(C7H12O4)]\\@
 The archive entry for this job was punched.


 I think that all right-thinking people in this
 country are sick and tired of being told that
 ordinary, decent people are fed up in this country
 with being sick and tired.  I'm certainly not!
 But I'm sick and tired of being told that I am!
                               -- Monty Python
 Job cpu time:       0 days  0 hours  6 minutes 21.1 seconds.
 Elapsed time:       0 days  0 hours  0 minutes 12.5 seconds.
 File lengths (MBytes):  RWF=     68 Int=      0 D2E=      0 Chk=      9 Scr=      1
 Normal termination of Gaussian 16 at Mon Feb 22 21:28:20 2021.
