 Entering Gaussian System, Link 0=g16
 Input=WNLRTRBMVRJNCN-UHFFFAOYSA-N.gjf
 Output=WNLRTRBMVRJNCN-UHFFFAOYSA-N.log
 Initial command:
 /sw/arch/RedHatEnterpriseServer7/EB_production/2019/software/Gaussian/g16.c01/l1.exe "/scratch-local/elenaa.9715289/Gau-16129.inp" -scrdir="/scratch-local/elenaa.9715289/"
 Entering Link 1 = /sw/arch/RedHatEnterpriseServer7/EB_production/2019/software/Gaussian/g16.c01/l1.exe PID=     16130.
  
 Copyright (c) 1988-2019, Gaussian, Inc.  All Rights Reserved.
  
 This is part of the Gaussian(R) 16 program.  It is based on
 the Gaussian(R) 09 system (copyright 2009, Gaussian, Inc.),
 the Gaussian(R) 03 system (copyright 2003, Gaussian, Inc.),
 the Gaussian(R) 98 system (copyright 1998, Gaussian, Inc.),
 the Gaussian(R) 94 system (copyright 1995, Gaussian, Inc.),
 the Gaussian 92(TM) system (copyright 1992, Gaussian, Inc.),
 the Gaussian 90(TM) system (copyright 1990, Gaussian, Inc.),
 the Gaussian 88(TM) system (copyright 1988, Gaussian, Inc.),
 the Gaussian 86(TM) system (copyright 1986, Carnegie Mellon
 University), and the Gaussian 82(TM) system (copyright 1983,
 Carnegie Mellon University). Gaussian is a federally registered
 trademark of Gaussian, Inc.
  
 This software contains proprietary and confidential information,
 including trade secrets, belonging to Gaussian, Inc.
  
 This software is provided under written license and may be
 used, copied, transmitted, or stored only in accord with that
 written license.
  
 The following legend is applicable only to US Government
 contracts under FAR:
  
                    RESTRICTED RIGHTS LEGEND
  
 Use, reproduction and disclosure by the US Government is
 subject to restrictions as set forth in subparagraphs (a)
 and (c) of the Commercial Computer Software - Restricted
 Rights clause in FAR 52.227-19.
  
 Gaussian, Inc.
 340 Quinnipiac St., Bldg. 40, Wallingford CT 06492
  
  
 ---------------------------------------------------------------
 Warning -- This program may not be used in any manner that
 competes with the business of Gaussian, Inc. or will provide
 assistance to any competitor of Gaussian, Inc.  The licensee
 of this program is prohibited from giving any competitor of
 Gaussian, Inc. access to this program.  By using this program,
 the user acknowledges that Gaussian, Inc. is engaged in the
 business of creating and licensing software in the field of
 computational chemistry and represents and warrants to the
 licensee that it is not a competitor of Gaussian, Inc. and that
 it will not use this program in any manner prohibited above.
 ---------------------------------------------------------------
  

 Cite this work as:
 Gaussian 16, Revision C.01,
 M. J. Frisch, G. W. Trucks, H. B. Schlegel, G. E. Scuseria, 
 M. A. Robb, J. R. Cheeseman, G. Scalmani, V. Barone, 
 G. A. Petersson, H. Nakatsuji, X. Li, M. Caricato, A. V. Marenich, 
 J. Bloino, B. G. Janesko, R. Gomperts, B. Mennucci, H. P. Hratchian, 
 J. V. Ortiz, A. F. Izmaylov, J. L. Sonnenberg, D. Williams-Young, 
 F. Ding, F. Lipparini, F. Egidi, J. Goings, B. Peng, A. Petrone, 
 T. Henderson, D. Ranasinghe, V. G. Zakrzewski, J. Gao, N. Rega, 
 G. Zheng, W. Liang, M. Hada, M. Ehara, K. Toyota, R. Fukuda, 
 J. Hasegawa, M. Ishida, T. Nakajima, Y. Honda, O. Kitao, H. Nakai, 
 T. Vreven, K. Throssell, J. A. Montgomery, Jr., J. E. Peralta, 
 F. Ogliaro, M. J. Bearpark, J. J. Heyd, E. N. Brothers, K. N. Kudin, 
 V. N. Staroverov, T. A. Keith, R. Kobayashi, J. Normand, 
 K. Raghavachari, A. P. Rendell, J. C. Burant, S. S. Iyengar, 
 J. Tomasi, M. Cossi, J. M. Millam, M. Klene, C. Adamo, R. Cammi, 
 J. W. Ochterski, R. L. Martin, K. Morokuma, O. Farkas, 
 J. B. Foresman, and D. J. Fox, Gaussian, Inc., Wallingford CT, 2019.
 
 ******************************************
 Gaussian 16:  ES64L-G16RevC.01  3-Jul-2019
                22-Feb-2021 
 ******************************************
 %chk=WNLRTRBMVRJNCN-UHFFFAOYSA-N.chk
 %NProcShared=32
 Will use up to   32 processors via shared memory.
 -------------------------------------------------------------
 #P BP86/TZVP EmpiricalDispersion=GD3 SCRF=(Solvent=Water) Opt
 -------------------------------------------------------------
 1/18=20,19=15,26=3,38=1/1,3;
 2/9=110,12=2,17=6,18=5,40=1/2;
 3/5=19,7=101,11=2,25=1,30=1,70=2201,71=1,72=1,74=404,124=31/1,2,3;
 4//1;
 5/5=2,38=5,53=1/2;
 6/7=2,8=2,9=2,10=2,28=1/1;
 7//1,2,3,16;
 1/18=20,19=15,26=3/3(2);
 2/9=110/2;
 99//99;
 2/9=110/2;
 3/5=19,7=101,11=2,25=1,30=1,70=2205,71=1,72=1,74=404,124=31/1,2,3;
 4/5=5,16=3,69=1/1;
 5/5=2,38=5,53=1/2;
 7//1,2,3,16;
 1/18=20,19=15,26=3/3(-5);
 2/9=110/2;
 6/7=2,8=2,9=2,10=2,19=2,28=1/1;
 99/9=1/99;
 Leave Link    1 at Mon Feb 22 21:24:32 2021, MaxMem=           0 cpu:               1.8 elap:               0.1
 (Enter /sw/arch/RedHatEnterpriseServer7/EB_production/2019/software/Gaussian/g16.c01/l101.exe)
 -------------------------------------
 Particle #WNLRTRBMVRJNCN-UHFFFAOYSA-N
 -------------------------------------
 Symbolic Z-matrix:
 Charge =  0 Multiplicity = 1
 O                     0.71377   0.76014   1.53282 
 C                     0.98269  -0.02719   2.46716 
 O                     1.71391   0.42908   3.51158 
 C                     0.5257   -1.42909   2.43507 
 C                    -0.50242  -1.74353   3.55485 
 C                    -0.90719  -3.24343   3.60555 
 C                    -1.95557  -3.53117   4.71477 
 C                    -2.35374  -4.94981   4.78971 
 O                    -1.52659  -5.83305   5.11048 
 O                    -3.63394  -5.31739   4.54188 
 H                     2.03356   1.35715   3.52243 
 H                     0.07422  -1.64507   1.46186 
 H                     1.40283  -2.06865   2.54761 
 H                    -0.08121  -1.4625    4.52538 
 H                    -1.3965   -1.13652   3.38294 
 H                    -1.32096  -3.53691   2.63628 
 H                    -0.01125  -3.84397   3.7887 
 H                    -2.84411  -2.92349   4.52535 
 H                    -1.55031  -3.23782   5.68631 
 H                    -3.90375  -6.25779   4.61707 
 
 ITRead=  0  0  0  0  0  0  0  0  0  0  0  0  0  0  0  0  0  0  0  0
 MicOpt= -1 -1 -1 -1 -1 -1 -1 -1 -1 -1 -1 -1 -1 -1 -1 -1 -1 -1 -1 -1
 NAtoms=     20 NQM=       20 NQMF=       0 NMMI=      0 NMMIF=      0
                NMic=       0 NMicF=      0.
                    Isotopes and Nuclear Properties:
 (Nuclear quadrupole moments (NQMom) in fm**2, nuclear magnetic moments (NMagM)
  in nuclear magnetons)

  Atom         1           2           3           4           5           6           7           8           9          10
 IAtWgt=          16          12          16          12          12          12          12          12          16          16
 AtmWgt=  15.9949146  12.0000000  15.9949146  12.0000000  12.0000000  12.0000000  12.0000000  12.0000000  15.9949146  15.9949146
 NucSpn=           0           0           0           0           0           0           0           0           0           0
 AtZEff=  -0.0000000  -0.0000000  -0.0000000  -0.0000000  -0.0000000  -0.0000000  -0.0000000  -0.0000000  -0.0000000  -0.0000000
 NQMom=    0.0000000   0.0000000   0.0000000   0.0000000   0.0000000   0.0000000   0.0000000   0.0000000   0.0000000   0.0000000
 NMagM=    0.0000000   0.0000000   0.0000000   0.0000000   0.0000000   0.0000000   0.0000000   0.0000000   0.0000000   0.0000000
 AtZNuc=   8.0000000   6.0000000   8.0000000   6.0000000   6.0000000   6.0000000   6.0000000   6.0000000   8.0000000   8.0000000

  Atom        11          12          13          14          15          16          17          18          19          20
 IAtWgt=           1           1           1           1           1           1           1           1           1           1
 AtmWgt=   1.0078250   1.0078250   1.0078250   1.0078250   1.0078250   1.0078250   1.0078250   1.0078250   1.0078250   1.0078250
 NucSpn=           1           1           1           1           1           1           1           1           1           1
 AtZEff=  -0.0000000  -0.0000000  -0.0000000  -0.0000000  -0.0000000  -0.0000000  -0.0000000  -0.0000000  -0.0000000  -0.0000000
 NQMom=    0.0000000   0.0000000   0.0000000   0.0000000   0.0000000   0.0000000   0.0000000   0.0000000   0.0000000   0.0000000
 NMagM=    2.7928460   2.7928460   2.7928460   2.7928460   2.7928460   2.7928460   2.7928460   2.7928460   2.7928460   2.7928460
 AtZNuc=   1.0000000   1.0000000   1.0000000   1.0000000   1.0000000   1.0000000   1.0000000   1.0000000   1.0000000   1.0000000
 Leave Link  101 at Mon Feb 22 21:24:33 2021, MaxMem=   104857600 cpu:               3.0 elap:               0.2
 (Enter /sw/arch/RedHatEnterpriseServer7/EB_production/2019/software/Gaussian/g16.c01/l103.exe)

 GradGradGradGradGradGradGradGradGradGradGradGradGradGradGradGradGradGrad
 Berny optimization.
 Initialization pass.
                           ----------------------------
                           !    Initial Parameters    !
                           ! (Angstroms and Degrees)  !
 --------------------------                            --------------------------
 ! Name  Definition              Value          Derivative Info.                !
 --------------------------------------------------------------------------------
 ! R1    R(1,2)                  1.2511         estimate D2E/DX2                !
 ! R2    R(2,3)                  1.3541         estimate D2E/DX2                !
 ! R3    R(2,4)                  1.4749         estimate D2E/DX2                !
 ! R4    R(3,11)                 0.9816         estimate D2E/DX2                !
 ! R5    R(4,5)                  1.5524         estimate D2E/DX2                !
 ! R6    R(4,12)                 1.0944         estimate D2E/DX2                !
 ! R7    R(4,13)                 1.0914         estimate D2E/DX2                !
 ! R8    R(5,6)                  1.5544         estimate D2E/DX2                !
 ! R9    R(5,14)                 1.0947         estimate D2E/DX2                !
 ! R10   R(5,15)                 1.0943         estimate D2E/DX2                !
 ! R11   R(6,7)                  1.5531         estimate D2E/DX2                !
 ! R12   R(6,16)                 1.094          estimate D2E/DX2                !
 ! R13   R(6,17)                 1.094          estimate D2E/DX2                !
 ! R14   R(7,8)                  1.4754         estimate D2E/DX2                !
 ! R15   R(7,18)                 1.093          estimate D2E/DX2                !
 ! R16   R(7,19)                 1.0928         estimate D2E/DX2                !
 ! R17   R(8,9)                  1.2519         estimate D2E/DX2                !
 ! R18   R(8,10)                 1.3548         estimate D2E/DX2                !
 ! R19   R(10,20)                0.9812         estimate D2E/DX2                !
 ! A1    A(1,2,3)              118.688          estimate D2E/DX2                !
 ! A2    A(1,2,4)              121.0201         estimate D2E/DX2                !
 ! A3    A(3,2,4)              120.2902         estimate D2E/DX2                !
 ! A4    A(2,3,11)             120.1935         estimate D2E/DX2                !
 ! A5    A(2,4,5)              112.4612         estimate D2E/DX2                !
 ! A6    A(2,4,12)             109.5589         estimate D2E/DX2                !
 ! A7    A(2,4,13)             107.8039         estimate D2E/DX2                !
 ! A8    A(5,4,12)             109.1644         estimate D2E/DX2                !
 ! A9    A(5,4,13)             109.8284         estimate D2E/DX2                !
 ! A10   A(12,4,13)            107.9158         estimate D2E/DX2                !
 ! A11   A(4,5,6)              113.0448         estimate D2E/DX2                !
 ! A12   A(4,5,14)             109.4324         estimate D2E/DX2                !
 ! A13   A(4,5,15)             108.3882         estimate D2E/DX2                !
 ! A14   A(6,5,14)             108.6028         estimate D2E/DX2                !
 ! A15   A(6,5,15)             109.1254         estimate D2E/DX2                !
 ! A16   A(14,5,15)            108.1355         estimate D2E/DX2                !
 ! A17   A(5,6,7)              112.1998         estimate D2E/DX2                !
 ! A18   A(5,6,16)             109.1749         estimate D2E/DX2                !
 ! A19   A(5,6,17)             108.7772         estimate D2E/DX2                !
 ! A20   A(7,6,16)             109.1326         estimate D2E/DX2                !
 ! A21   A(7,6,17)             109.3617         estimate D2E/DX2                !
 ! A22   A(16,6,17)            108.1077         estimate D2E/DX2                !
 ! A23   A(6,7,8)              113.3649         estimate D2E/DX2                !
 ! A24   A(6,7,18)             108.7818         estimate D2E/DX2                !
 ! A25   A(6,7,19)             109.5652         estimate D2E/DX2                !
 ! A26   A(8,7,18)             108.9053         estimate D2E/DX2                !
 ! A27   A(8,7,19)             108.243          estimate D2E/DX2                !
 ! A28   A(18,7,19)            107.8367         estimate D2E/DX2                !
 ! A29   A(7,8,9)              120.871          estimate D2E/DX2                !
 ! A30   A(7,8,10)             120.4388         estimate D2E/DX2                !
 ! A31   A(9,8,10)             118.6724         estimate D2E/DX2                !
 ! A32   A(8,10,20)            120.3876         estimate D2E/DX2                !
 ! D1    D(1,2,3,11)            -0.8243         estimate D2E/DX2                !
 ! D2    D(4,2,3,11)           178.6958         estimate D2E/DX2                !
 ! D3    D(1,2,4,5)           -114.382          estimate D2E/DX2                !
 ! D4    D(1,2,4,12)             7.2095         estimate D2E/DX2                !
 ! D5    D(1,2,4,13)           124.4012         estimate D2E/DX2                !
 ! D6    D(3,2,4,5)             66.1093         estimate D2E/DX2                !
 ! D7    D(3,2,4,12)          -172.2993         estimate D2E/DX2                !
 ! D8    D(3,2,4,13)           -55.1075         estimate D2E/DX2                !
 ! D9    D(2,4,5,6)           -175.3885         estimate D2E/DX2                !
 ! D10   D(2,4,5,14)           -54.2112         estimate D2E/DX2                !
 ! D11   D(2,4,5,15)            63.5057         estimate D2E/DX2                !
 ! D12   D(12,4,5,6)            62.7956         estimate D2E/DX2                !
 ! D13   D(12,4,5,14)         -176.0271         estimate D2E/DX2                !
 ! D14   D(12,4,5,15)          -58.3102         estimate D2E/DX2                !
 ! D15   D(13,4,5,6)           -55.3366         estimate D2E/DX2                !
 ! D16   D(13,4,5,14)           65.8406         estimate D2E/DX2                !
 ! D17   D(13,4,5,15)         -176.4424         estimate D2E/DX2                !
 ! D18   D(4,5,6,7)           -178.9348         estimate D2E/DX2                !
 ! D19   D(4,5,6,16)           -57.8236         estimate D2E/DX2                !
 ! D20   D(4,5,6,17)            59.9375         estimate D2E/DX2                !
 ! D21   D(14,5,6,7)            59.4197         estimate D2E/DX2                !
 ! D22   D(14,5,6,16)         -179.4691         estimate D2E/DX2                !
 ! D23   D(14,5,6,17)          -61.708          estimate D2E/DX2                !
 ! D24   D(15,5,6,7)           -58.2474         estimate D2E/DX2                !
 ! D25   D(15,5,6,16)           62.8639         estimate D2E/DX2                !
 ! D26   D(15,5,6,17)         -179.375          estimate D2E/DX2                !
 ! D27   D(5,6,7,8)           -179.7348         estimate D2E/DX2                !
 ! D28   D(5,6,7,18)            58.9521         estimate D2E/DX2                !
 ! D29   D(5,6,7,19)           -58.7076         estimate D2E/DX2                !
 ! D30   D(16,6,7,8)            59.1296         estimate D2E/DX2                !
 ! D31   D(16,6,7,18)          -62.1835         estimate D2E/DX2                !
 ! D32   D(16,6,7,19)         -179.8432         estimate D2E/DX2                !
 ! D33   D(17,6,7,8)           -58.9439         estimate D2E/DX2                !
 ! D34   D(17,6,7,18)          179.743          estimate D2E/DX2                !
 ! D35   D(17,6,7,19)           62.0833         estimate D2E/DX2                !
 ! D36   D(6,7,8,9)             64.7764         estimate D2E/DX2                !
 ! D37   D(6,7,8,10)          -116.7749         estimate D2E/DX2                !
 ! D38   D(18,7,8,9)          -173.98           estimate D2E/DX2                !
 ! D39   D(18,7,8,10)            4.4688         estimate D2E/DX2                !
 ! D40   D(19,7,8,9)           -56.9927         estimate D2E/DX2                !
 ! D41   D(19,7,8,10)          121.456          estimate D2E/DX2                !
 ! D42   D(7,8,10,20)         -178.239          estimate D2E/DX2                !
 ! D43   D(9,8,10,20)            0.2435         estimate D2E/DX2                !
 --------------------------------------------------------------------------------
 Trust Radius=3.00D-01 FncErr=1.00D-07 GrdErr=1.00D-06 EigMax=2.50D+02 EigMin=1.00D-04
 Number of steps in this run=    104 maximum allowed number of steps=    120.
 GradGradGradGradGradGradGradGradGradGradGradGradGradGradGradGradGradGrad

 Leave Link  103 at Mon Feb 22 21:24:33 2021, MaxMem=   104857600 cpu:               0.6 elap:               0.0
 (Enter /sw/arch/RedHatEnterpriseServer7/EB_production/2019/software/Gaussian/g16.c01/l202.exe)
                          Input orientation:                          
 ---------------------------------------------------------------------
 Center     Atomic      Atomic             Coordinates (Angstroms)
 Number     Number       Type             X           Y           Z
 ---------------------------------------------------------------------
      1          8           0        0.713770    0.760140    1.532820
      2          6           0        0.982690   -0.027190    2.467160
      3          8           0        1.713910    0.429080    3.511580
      4          6           0        0.525700   -1.429090    2.435070
      5          6           0       -0.502420   -1.743530    3.554850
      6          6           0       -0.907190   -3.243430    3.605550
      7          6           0       -1.955570   -3.531170    4.714770
      8          6           0       -2.353740   -4.949810    4.789710
      9          8           0       -1.526590   -5.833050    5.110480
     10          8           0       -3.633940   -5.317390    4.541880
     11          1           0        2.033560    1.357150    3.522430
     12          1           0        0.074220   -1.645070    1.461860
     13          1           0        1.402830   -2.068650    2.547610
     14          1           0       -0.081210   -1.462500    4.525380
     15          1           0       -1.396500   -1.136520    3.382940
     16          1           0       -1.320960   -3.536910    2.636280
     17          1           0       -0.011250   -3.843970    3.788700
     18          1           0       -2.844110   -2.923490    4.525350
     19          1           0       -1.550310   -3.237820    5.686310
     20          1           0       -3.903750   -6.257790    4.617070
 ---------------------------------------------------------------------
                    Distance matrix (angstroms):
                    1          2          3          4          5
     1  O    0.000000
     2  C    1.251079   0.000000
     3  O    2.241734   1.354134   0.000000
     4  C    2.375322   1.474854   2.454285   0.000000
     5  C    3.440361   2.516832   3.103905   1.552356   0.000000
     6  C    4.790855   3.900228   4.512907   2.591337   1.554384
     7  C    5.972062   5.095390   5.531395   3.971457   2.579286
     8  C    7.253997   6.384214   6.863807   5.121618   3.902883
     9  O    7.828730   6.855045   7.229910   5.546582   4.493671
    10  O    8.055644   7.321472   7.917256   6.071254   4.853156
    11  H    2.461060   2.033303   0.981635   3.349497   4.005804
    12  H    2.489798   2.110327   3.345450   1.094358   2.173204
    13  H    3.083286   2.085797   2.695304   1.091357   2.179498
    14  H    3.811501   2.725485   2.797914   2.176890   1.094680
    15  H    3.387256   2.780254   3.484581   2.163078   1.094255
    16  H    4.880818   4.201612   5.070075   2.809545   2.174854
    17  H    5.178077   4.159591   4.616484   2.819978   2.169742
    18  H    5.931515   5.221982   5.748304   4.237702   2.796013
    19  H    6.193644   5.204533   5.369426   4.260503   2.806082
    20  H    8.949046   8.204864   8.803093   6.906337   5.751165
                    6          7          8          9         10
     6  C    0.000000
     7  C    1.553146   0.000000
     8  C    2.531101   1.475363   0.000000
     9  O    3.058529   2.374713   1.251872   0.000000
    10  O    3.551505   2.457112   1.354787   2.242796   0.000000
    11  H    5.460793   6.421098   7.786665   8.178970   8.815289
    12  H    2.848390   4.273037   5.281182   5.780501   6.059943
    13  H    2.799203   4.256101   5.238312   5.414842   6.316682
    14  H    2.167958   2.797944   4.170803   4.640385   5.242360
    15  H    2.174408   2.796548   4.175702   5.005868   4.881491
    16  H    1.093993   2.173220   2.774920   3.381746   3.485871
    17  H    1.094030   2.176196   2.777078   2.828391   3.982729
    18  H    2.167961   1.093004   2.101505   3.247118   2.520885
    19  H    2.177888   1.092785   2.092917   2.658451   3.158456
    20  H    4.369086   3.352523   2.035472   2.464700   0.981225
                   11         12         13         14         15
    11  H    0.000000
    12  H    4.135007   0.000000
    13  H    3.617209   1.767336   0.000000
    14  H    3.664504   3.072889   2.545853   0.000000
    15  H    4.243013   2.472284   3.066413   1.772405   0.000000
    16  H    5.999157   2.627708   3.095591   3.067386   2.514971
    17  H    5.594980   3.202601   2.586830   2.493791   3.068199
    18  H    6.566688   4.419952   4.762217   3.125397   2.567866
    19  H    6.216128   4.798117   4.465359   2.580266   3.121639
    20  H    9.717880   6.859795   7.070456   6.133109   5.834105
                   16         17         18         19         20
    16  H    0.000000
    17  H    1.771355   0.000000
    18  H    2.502969   3.068392   0.000000
    19  H    3.073229   2.517349   1.766508   0.000000
    20  H    4.242349   4.654490   3.499829   3.975195   0.000000
 Stoichiometry    C6H10O4
 Framework group  C1[X(C6H10O4)]
 Deg. of freedom    54
 Full point group                 C1      NOp   1
 Largest Abelian subgroup         C1      NOp   1
 Largest concise Abelian subgroup C1      NOp   1
                         Standard orientation:                         
 ---------------------------------------------------------------------
 Center     Atomic      Atomic             Coordinates (Angstroms)
 Number     Number       Type             X           Y           Z
 ---------------------------------------------------------------------
      1          8           0        3.981296   -1.054694    0.105732
      2          6           0        3.199839   -0.077699    0.103893
      3          8           0        3.600780    1.074287   -0.484198
      4          6           0        1.870617   -0.166425    0.736737
      5          6           0        0.714633   -0.051689   -0.292995
      6          6           0       -0.690981   -0.028937    0.370210
      7          6           0       -1.833267    0.059527   -0.678417
      8          6           0       -3.179665    0.089043   -0.075891
      9          8           0       -3.540598    1.047918    0.643463
     10          8           0       -4.061912   -0.910250   -0.317757
     11          1           0        4.493176    1.137775   -0.888187
     12          1           0        1.782230   -1.117055    1.271629
     13          1           0        1.795289    0.639162    1.469140
     14          1           0        0.838906    0.864231   -0.879486
     15          1           0        0.774975   -0.904383   -0.976125
     16          1           0       -0.821498   -0.936546    0.966893
     17          1           0       -0.748956    0.831678    1.043176
     18          1           0       -1.763737   -0.801552   -1.348019
     19          1           0       -1.708086    0.962791   -1.280598
     20          1           0       -4.965883   -0.877103    0.062427
 ---------------------------------------------------------------------
 Rotational constants (GHZ):           4.3937429           0.3708085           0.3609351
 Leave Link  202 at Mon Feb 22 21:24:33 2021, MaxMem=   104857600 cpu:               0.8 elap:               0.1
 (Enter /sw/arch/RedHatEnterpriseServer7/EB_production/2019/software/Gaussian/g16.c01/l301.exe)
 Standard basis: TZVP (5D, 7F)
 Ernie: Thresh=  0.10000D-02 Tol=  0.10000D-05 Strict=F.
 There are   260 symmetry adapted cartesian basis functions of A   symmetry.
 There are   250 symmetry adapted basis functions of A   symmetry.
   250 basis functions,   430 primitive gaussians,   260 cartesian basis functions
    39 alpha electrons       39 beta electrons
       nuclear repulsion energy       504.3611241814 Hartrees.
 IExCor=  404 DFT=T Ex=B Corr=P86 ExCW=0 ScaHFX=  0.000000
 ScaDFX=  1.000000  1.000000  1.000000  1.000000 ScalE2=  1.000000  1.000000
 IRadAn=      5 IRanWt=     -1 IRanGd=            0 ICorTp=0 IEmpDi=131
 NAtoms=   20 NActive=   20 NUniq=   20 SFac= 1.00D+00 NAtFMM=   60 NAOKFM=F Big=F
 Integral buffers will be    131072 words long.
 Raffenetti 2 integral format.
 Two-electron integral symmetry is turned on.
 R6Disp:  Grimme-D3 Dispersion energy=       -0.0174996933 Hartrees.
 Nuclear repulsion after empirical dispersion term =      504.3436244881 Hartrees.
 ------------------------------------------------------------------------------
 Polarizable Continuum Model (PCM)
 =================================
 Model                : PCM.
 Atomic radii         : UFF (Universal Force Field).
 Polarization charges : Total charges.
 Charge compensation  : None.
 Solution method      : On-the-fly selection.
 Cavity type          : Scaled VdW (van der Waals Surface) (Alpha=1.100).
 Cavity algorithm     : GePol (No added spheres)
                        Default sphere list used, NSphG=   20.
                        Lebedev-Laikov grids with approx.  5.0 points / Ang**2.
                        Smoothing algorithm: York/Karplus (Gamma=1.0000).
                        Polarization charges: spherical gaussians, with
                                              point-specific exponents (IZeta= 3).
                        Self-potential: point-specific (ISelfS= 7).
                        Self-field    : sphere-specific E.n sum rule (ISelfD= 2).
 1st derivatives      : Analytical E(r).r(x)/FMM algorithm (CHGder, D1EAlg=3).
                        Cavity 1st derivative terms included.
 Solvent              : Water, Eps=  78.355300 Eps(inf)=   1.777849
 ------------------------------------------------------------------------------
 Spheres list:
 ISph  on   Nord     Re0    Alpha      Xe            Ye            Ze
    1   O      1    1.7500  1.100      3.981296     -1.054694      0.105732
    2   C      2    1.9255  1.100      3.199839     -0.077699      0.103893
    3   O      3    1.7500  1.100      3.600780      1.074287     -0.484198
    4   C      4    1.9255  1.100      1.870617     -0.166425      0.736737
    5   C      5    1.9255  1.100      0.714633     -0.051689     -0.292995
    6   C      6    1.9255  1.100     -0.690981     -0.028937      0.370210
    7   C      7    1.9255  1.100     -1.833267      0.059527     -0.678417
    8   C      8    1.9255  1.100     -3.179665      0.089043     -0.075891
    9   O      9    1.7500  1.100     -3.540598      1.047918      0.643463
   10   O     10    1.7500  1.100     -4.061912     -0.910250     -0.317757
   11   H     11    1.4430  1.100      4.493176      1.137775     -0.888187
   12   H     12    1.4430  1.100      1.782230     -1.117055      1.271629
   13   H     13    1.4430  1.100      1.795289      0.639162      1.469140
   14   H     14    1.4430  1.100      0.838906      0.864231     -0.879486
   15   H     15    1.4430  1.100      0.774975     -0.904383     -0.976125
   16   H     16    1.4430  1.100     -0.821498     -0.936546      0.966893
   17   H     17    1.4430  1.100     -0.748956      0.831678      1.043176
   18   H     18    1.4430  1.100     -1.763737     -0.801552     -1.348019
   19   H     19    1.4430  1.100     -1.708086      0.962791     -1.280598
   20   H     20    1.4430  1.100     -4.965883     -0.877103      0.062427
 ------------------------------------------------------------------------------
 GePol: Number of generator spheres                  =      20
 GePol: Total number of spheres                      =      20
 GePol: Number of exposed spheres                    =      20 (100.00%)
 GePol: Number of points                             =    1704
 GePol: Average weight of points                     =       0.13
 GePol: Minimum weight of points                     =   0.61D-09
 GePol: Maximum weight of points                     =    0.20577
 GePol: Number of points with low weight             =      98
 GePol: Fraction of low-weight points (<1% of avg)   =       5.75%
 GePol: Cavity surface area                          =    226.938 Ang**2
 GePol: Cavity volume                                =    216.578 Ang**3
 Leave Link  301 at Mon Feb 22 21:24:33 2021, MaxMem=   104857600 cpu:               1.9 elap:               0.1
 (Enter /sw/arch/RedHatEnterpriseServer7/EB_production/2019/software/Gaussian/g16.c01/l302.exe)
 NPDir=0 NMtPBC=     1 NCelOv=     1 NCel=       1 NClECP=     1 NCelD=      1
         NCelK=      1 NCelE2=     1 NClLst=     1 CellRange=     0.0.
 One-electron integrals computed using PRISM.
 One-electron integral symmetry used in STVInt
 PrsmSu:  requested number of processors reduced to:  28 ShMem   1 Linda.
 NBasis=   250 RedAO= T EigKep=  1.14D-04  NBF=   250
 NBsUse=   250 1.00D-06 EigRej= -1.00D+00 NBFU=   250
 Precomputing XC quadrature grid using
 IXCGrd= 4 IRadAn=           5 IRanWt=          -1 IRanGd=           0 AccXCQ= 0.00D+00.
 Generated NRdTot=       0 NPtTot=           0 NUsed=           0 NTot=          32
 NSgBfM=   254   254   254   254   254 MxSgAt=    20 MxSgA2=    20.
 Leave Link  302 at Mon Feb 22 21:24:33 2021, MaxMem=   104857600 cpu:               7.2 elap:               0.3
 (Enter /sw/arch/RedHatEnterpriseServer7/EB_production/2019/software/Gaussian/g16.c01/l303.exe)
 DipDrv:  MaxL=1.
 Leave Link  303 at Mon Feb 22 21:24:34 2021, MaxMem=   104857600 cpu:               1.2 elap:               0.1
 (Enter /sw/arch/RedHatEnterpriseServer7/EB_production/2019/software/Gaussian/g16.c01/l401.exe)
 ExpMin= 9.52D-02 ExpMax= 2.70D+04 ExpMxC= 9.22D+02 IAcc=3 IRadAn=         5 AccDes= 0.00D+00
 Harris functional with IExCor=  404 and IRadAn=       5 diagonalized for initial guess.
 HarFok:  IExCor=  404 AccDes= 0.00D+00 IRadAn=         5 IDoV= 1 UseB2=F ITyADJ=14
 ICtDFT=  3500011 ScaDFX=  1.000000  1.000000  1.000000  1.000000
 FoFCou: FMM=F IPFlag=           0 FMFlag=      100000 FMFlg1=           0
         NFxFlg=           0 DoJE=T BraDBF=F KetDBF=T FulRan=T
         wScrn=  0.000000 ICntrl=       500 IOpCl=  0 I1Cent=   200000004 NGrid=           0
         NMat0=    1 NMatS0=      1 NMatT0=    0 NMatD0=    1 NMtDS0=    0 NMtDT0=    0
 Petite list used in FoFCou.
 Harris En= -535.985207648072    
 JPrj=0 DoOrth=F DoCkMO=F.
 Leave Link  401 at Mon Feb 22 21:24:34 2021, MaxMem=   104857600 cpu:              13.5 elap:               0.5
 (Enter /sw/arch/RedHatEnterpriseServer7/EB_production/2019/software/Gaussian/g16.c01/l502.exe)
 Integral symmetry usage will be decided dynamically.
 Closed shell SCF:
 Using DIIS extrapolation, IDIIS=  1040.
 NGot=   104857600 LenX=   104710894 LenY=   104642853
 Requested convergence on RMS density matrix=1.00D-08 within 128 cycles.
 Requested convergence on MAX density matrix=1.00D-06.
 Requested convergence on             energy=1.00D-06.
 No special actions if energy rises.
 Fock matrices will be formed incrementally for  20 cycles.

 Cycle   1  Pass 1  IDiag  1:
 FoFJK:  IHMeth= 1 ICntrl=     500 DoSepK=F KAlg= 0 I1Cent=           0 FoldK=F
 IRaf= 860000000 NMat=       1 IRICut=       1 DoRegI=T DoRafI=F ISym2E= 0 IDoP0=0 IntGTp=1.
 FoFCou: FMM=F IPFlag=           0 FMFlag=      100000 FMFlg1=           0
         NFxFlg=           0 DoJE=T BraDBF=F KetDBF=F FulRan=T
         wScrn=  0.000000 ICntrl=       500 IOpCl=  0 I1Cent=           0 NGrid=           0
         NMat0=    1 NMatS0=      1 NMatT0=    0 NMatD0=    1 NMtDS0=    0 NMtDT0=    0
 Symmetry not used in FoFCou.
 Inv3:  Mode=1 IEnd=     8710848.
 Iteration    1 A*A^-1 deviation from unit magnitude is 2.78D-15 for    947.
 Iteration    1 A*A^-1 deviation from orthogonality  is 1.55D-15 for   1590    136.
 Iteration    1 A^-1*A deviation from unit magnitude is 3.11D-15 for    615.
 Iteration    1 A^-1*A deviation from orthogonality  is 1.60D-15 for   1638     26.
 E= -535.494485419555    
 DIIS: error= 3.20D-02 at cycle   1 NSaved=   1.
 NSaved= 1 IEnMin= 1 EnMin= -535.494485419555     IErMin= 1 ErrMin= 3.20D-02
 ErrMax= 3.20D-02  0.00D+00 EMaxC= 1.00D-01 BMatC= 3.91D-01 BMatP= 3.91D-01
 IDIUse=3 WtCom= 6.80D-01 WtEn= 3.20D-01
 Coeff-Com:  0.100D+01
 Coeff-En:   0.100D+01
 Coeff:      0.100D+01
 Gap=     0.060 Goal=   None    Shift=    0.000
 GapD=    0.060 DampG=0.500 DampE=0.500 DampFc=0.2500 IDamp=-1.
 Damping current iteration by 2.50D-01
 RMSDP=9.36D-03 MaxDP=6.04D-01              OVMax= 3.17D-01

 Cycle   2  Pass 1  IDiag  1:
 RMSU=  2.34D-03    CP:  1.00D+00
 E= -535.601189226594     Delta-E=       -0.106703807039 Rises=F Damp=T
 DIIS: error= 1.23D-02 at cycle   2 NSaved=   2.
 NSaved= 2 IEnMin= 2 EnMin= -535.601189226594     IErMin= 2 ErrMin= 1.23D-02
 ErrMax= 1.23D-02  0.00D+00 EMaxC= 1.00D-01 BMatC= 4.55D-02 BMatP= 3.91D-01
 IDIUse=3 WtCom= 8.77D-01 WtEn= 1.23D-01
 Coeff-Com: -0.271D+00 0.127D+01
 Coeff-En:   0.508D-01 0.949D+00
 Coeff:     -0.231D+00 0.123D+01
 Gap=     0.161 Goal=   None    Shift=    0.000
 RMSDP=1.73D-03 MaxDP=4.15D-02 DE=-1.07D-01 OVMax= 2.61D-01

 Cycle   3  Pass 1  IDiag  1:
 RMSU=  1.72D-03    CP:  9.94D-01  9.88D-01
 E= -535.720765779576     Delta-E=       -0.119576552982 Rises=F Damp=F
 DIIS: error= 2.06D-02 at cycle   3 NSaved=   3.
 NSaved= 3 IEnMin= 3 EnMin= -535.720765779576     IErMin= 2 ErrMin= 1.23D-02
 ErrMax= 2.06D-02  0.00D+00 EMaxC= 1.00D-01 BMatC= 1.13D-01 BMatP= 4.55D-02
 IDIUse=2 WtCom= 0.00D+00 WtEn= 1.00D+00
 EnCoef did   100 forward-backward iterations
 Coeff-En:   0.597D-01 0.215D-02 0.938D+00
 Coeff:      0.597D-01 0.215D-02 0.938D+00
 Gap=     0.123 Goal=   None    Shift=    0.000
 RMSDP=4.38D-03 MaxDP=1.78D-01 DE=-1.20D-01 OVMax= 3.86D-01

 Cycle   4  Pass 1  IDiag  1:
 RMSU=  1.86D-03    CP:  1.01D+00  2.10D+00 -7.35D-01
 E= -535.012580265674     Delta-E=        0.708185513902 Rises=F Damp=F
 DIIS: error= 6.72D-02 at cycle   4 NSaved=   4.
 NSaved= 4 IEnMin= 3 EnMin= -535.720765779576     IErMin= 2 ErrMin= 1.23D-02
 ErrMax= 6.72D-02  0.00D+00 EMaxC= 1.00D-01 BMatC= 1.02D+00 BMatP= 4.55D-02
 IDIUse=2 WtCom= 0.00D+00 WtEn= 1.00D+00
 Coeff-En:   0.000D+00 0.000D+00 0.835D+00 0.165D+00
 Coeff:      0.000D+00 0.000D+00 0.835D+00 0.165D+00
 Gap=     0.149 Goal=   None    Shift=    0.000
 RMSDP=2.91D-03 MaxDP=1.57D-01 DE= 7.08D-01 OVMax= 2.22D-01

 Cycle   5  Pass 1  IDiag  1:
 RMSU=  4.43D-04    CP:  1.00D+00  1.09D+00  7.58D-02  5.30D-01
 E= -535.735997744431     Delta-E=       -0.723417478757 Rises=F Damp=F
 DIIS: error= 1.98D-02 at cycle   5 NSaved=   5.
 NSaved= 5 IEnMin= 5 EnMin= -535.735997744431     IErMin= 2 ErrMin= 1.23D-02
 ErrMax= 1.98D-02  0.00D+00 EMaxC= 1.00D-01 BMatC= 9.97D-02 BMatP= 4.55D-02
 IDIUse=2 WtCom= 0.00D+00 WtEn= 1.00D+00
 Coeff-En:   0.000D+00 0.000D+00 0.468D+00 0.000D+00 0.532D+00
 Coeff:      0.000D+00 0.000D+00 0.468D+00 0.000D+00 0.532D+00
 Gap=     0.172 Goal=   None    Shift=    0.000
 RMSDP=9.32D-04 MaxDP=2.32D-02 DE=-7.23D-01 OVMax= 8.53D-02

 Cycle   6  Pass 1  IDiag  1:
 RMSU=  1.97D-04    CP:  9.99D-01  1.01D+00  4.98D-01  2.57D-01  8.31D-01
 E= -535.811520203716     Delta-E=       -0.075522459285 Rises=F Damp=F
 DIIS: error= 2.16D-03 at cycle   6 NSaved=   6.
 NSaved= 6 IEnMin= 6 EnMin= -535.811520203716     IErMin= 6 ErrMin= 2.16D-03
 ErrMax= 2.16D-03  0.00D+00 EMaxC= 1.00D-01 BMatC= 2.42D-03 BMatP= 4.55D-02
 IDIUse=3 WtCom= 9.78D-01 WtEn= 2.16D-02
 Coeff-Com: -0.445D-01 0.804D-01 0.264D+00-0.438D-01 0.408D+00 0.336D+00
 Coeff-En:   0.000D+00 0.000D+00 0.000D+00 0.000D+00 0.000D+00 0.100D+01
 Coeff:     -0.435D-01 0.786D-01 0.258D+00-0.428D-01 0.399D+00 0.351D+00
 Gap=     0.174 Goal=   None    Shift=    0.000
 RMSDP=1.42D-04 MaxDP=4.17D-03 DE=-7.55D-02 OVMax= 9.13D-03

 Cycle   7  Pass 1  IDiag  1:
 RMSU=  6.81D-05    CP:  9.99D-01  1.01D+00  4.82D-01  2.88D-01  7.97D-01
                    CP:  4.67D-01
 E= -535.813164369342     Delta-E=       -0.001644165626 Rises=F Damp=F
 DIIS: error= 5.92D-04 at cycle   7 NSaved=   7.
 NSaved= 7 IEnMin= 7 EnMin= -535.813164369342     IErMin= 7 ErrMin= 5.92D-04
 ErrMax= 5.92D-04  0.00D+00 EMaxC= 1.00D-01 BMatC= 1.10D-04 BMatP= 2.42D-03
 IDIUse=3 WtCom= 9.94D-01 WtEn= 5.92D-03
 Coeff-Com: -0.626D-02 0.101D-01 0.731D-01-0.169D-01 0.126D+00 0.216D+00
 Coeff-Com:  0.598D+00
 Coeff-En:   0.000D+00 0.000D+00 0.000D+00 0.000D+00 0.000D+00 0.000D+00
 Coeff-En:   0.100D+01
 Coeff:     -0.622D-02 0.101D-01 0.727D-01-0.168D-01 0.125D+00 0.215D+00
 Coeff:      0.601D+00
 Gap=     0.174 Goal=   None    Shift=    0.000
 RMSDP=3.13D-05 MaxDP=7.58D-04 DE=-1.64D-03 OVMax= 1.95D-03

 Cycle   8  Pass 1  IDiag  1:
 RMSU=  2.12D-05    CP:  9.99D-01  1.01D+00  4.85D-01  2.83D-01  7.99D-01
                    CP:  5.07D-01  7.35D-01
 E= -535.813239006831     Delta-E=       -0.000074637489 Rises=F Damp=F
 DIIS: error= 1.90D-04 at cycle   8 NSaved=   8.
 NSaved= 8 IEnMin= 8 EnMin= -535.813239006831     IErMin= 8 ErrMin= 1.90D-04
 ErrMax= 1.90D-04  0.00D+00 EMaxC= 1.00D-01 BMatC= 1.21D-05 BMatP= 1.10D-04
 IDIUse=3 WtCom= 9.98D-01 WtEn= 1.90D-03
 Coeff-Com:  0.527D-02-0.877D-02 0.138D-01-0.281D-02 0.212D-01 0.955D-01
 Coeff-Com:  0.345D+00 0.531D+00
 Coeff-En:   0.000D+00 0.000D+00 0.000D+00 0.000D+00 0.000D+00 0.000D+00
 Coeff-En:   0.000D+00 0.100D+01
 Coeff:      0.526D-02-0.876D-02 0.137D-01-0.281D-02 0.212D-01 0.953D-01
 Coeff:      0.345D+00 0.532D+00
 Gap=     0.174 Goal=   None    Shift=    0.000
 RMSDP=1.89D-05 MaxDP=1.25D-03 DE=-7.46D-05 OVMax= 1.09D-03

 Cycle   9  Pass 1  IDiag  1:
 RMSU=  8.16D-06    CP:  9.99D-01  1.01D+00  4.87D-01  2.82D-01  7.96D-01
                    CP:  5.31D-01  7.67D-01  5.80D-01
 E= -535.813247756482     Delta-E=       -0.000008749651 Rises=F Damp=F
 DIIS: error= 9.17D-05 at cycle   9 NSaved=   9.
 NSaved= 9 IEnMin= 9 EnMin= -535.813247756482     IErMin= 9 ErrMin= 9.17D-05
 ErrMax= 9.17D-05  0.00D+00 EMaxC= 1.00D-01 BMatC= 1.84D-06 BMatP= 1.21D-05
 IDIUse=1 WtCom= 1.00D+00 WtEn= 0.00D+00
 Coeff-Com:  0.398D-02-0.623D-02 0.593D-02-0.116D-02 0.793D-02 0.545D-01
 Coeff-Com:  0.210D+00 0.377D+00 0.348D+00
 Coeff:      0.398D-02-0.623D-02 0.593D-02-0.116D-02 0.793D-02 0.545D-01
 Coeff:      0.210D+00 0.377D+00 0.348D+00
 Gap=     0.174 Goal=   None    Shift=    0.000
 RMSDP=5.36D-06 MaxDP=1.95D-04 DE=-8.75D-06 OVMax= 5.01D-04

 Cycle  10  Pass 1  IDiag  1:
 RMSU=  3.57D-06    CP:  9.99D-01  1.01D+00  4.87D-01  2.82D-01  7.96D-01
                    CP:  5.30D-01  7.66D-01  6.39D-01  5.41D-01
 E= -535.813248999306     Delta-E=       -0.000001242824 Rises=F Damp=F
 DIIS: error= 3.55D-05 at cycle  10 NSaved=  10.
 NSaved=10 IEnMin=10 EnMin= -535.813248999306     IErMin=10 ErrMin= 3.55D-05
 ErrMax= 3.55D-05  0.00D+00 EMaxC= 1.00D-01 BMatC= 1.97D-07 BMatP= 1.84D-06
 IDIUse=1 WtCom= 1.00D+00 WtEn= 0.00D+00
 Coeff-Com:  0.135D-02-0.184D-02 0.145D-02-0.300D-03 0.138D-02 0.144D-01
 Coeff-Com:  0.577D-01 0.116D+00 0.239D+00 0.571D+00
 Coeff:      0.135D-02-0.184D-02 0.145D-02-0.300D-03 0.138D-02 0.144D-01
 Coeff:      0.577D-01 0.116D+00 0.239D+00 0.571D+00
 Gap=     0.174 Goal=   None    Shift=    0.000
 RMSDP=1.65D-06 MaxDP=4.30D-05 DE=-1.24D-06 OVMax= 1.58D-04

 Cycle  11  Pass 1  IDiag  1:
 RMSU=  7.97D-07    CP:  9.99D-01  1.01D+00  4.87D-01  2.81D-01  7.96D-01
                    CP:  5.30D-01  7.69D-01  6.40D-01  6.00D-01  6.38D-01
 E= -535.813249134588     Delta-E=       -0.000000135282 Rises=F Damp=F
 DIIS: error= 9.01D-06 at cycle  11 NSaved=  11.
 NSaved=11 IEnMin=11 EnMin= -535.813249134588     IErMin=11 ErrMin= 9.01D-06
 ErrMax= 9.01D-06  0.00D+00 EMaxC= 1.00D-01 BMatC= 2.07D-08 BMatP= 1.97D-07
 IDIUse=1 WtCom= 1.00D+00 WtEn= 0.00D+00
 Coeff-Com:  0.586D-03-0.709D-03 0.580D-03-0.127D-03 0.407D-03 0.522D-02
 Coeff-Com:  0.218D-01 0.455D-01 0.125D+00 0.367D+00 0.435D+00
 Coeff:      0.586D-03-0.709D-03 0.580D-03-0.127D-03 0.407D-03 0.522D-02
 Coeff:      0.218D-01 0.455D-01 0.125D+00 0.367D+00 0.435D+00
 Gap=     0.174 Goal=   None    Shift=    0.000
 RMSDP=4.26D-07 MaxDP=1.25D-05 DE=-1.35D-07 OVMax= 2.73D-05

 Cycle  12  Pass 1  IDiag  1:
 RMSU=  2.88D-07    CP:  9.99D-01  1.01D+00  4.88D-01  2.81D-01  7.96D-01
                    CP:  5.30D-01  7.69D-01  6.38D-01  5.98D-01  6.65D-01
                    CP:  6.74D-01
 E= -535.813249149318     Delta-E=       -0.000000014730 Rises=F Damp=F
 DIIS: error= 2.14D-06 at cycle  12 NSaved=  12.
 NSaved=12 IEnMin=12 EnMin= -535.813249149318     IErMin=12 ErrMin= 2.14D-06
 ErrMax= 2.14D-06  0.00D+00 EMaxC= 1.00D-01 BMatC= 1.42D-09 BMatP= 2.07D-08
 IDIUse=1 WtCom= 1.00D+00 WtEn= 0.00D+00
 Coeff-Com:  0.127D-03-0.131D-03 0.116D-03-0.220D-04 0.379D-04 0.551D-03
 Coeff-Com:  0.272D-02 0.529D-02 0.283D-01 0.108D+00 0.224D+00 0.631D+00
 Coeff:      0.127D-03-0.131D-03 0.116D-03-0.220D-04 0.379D-04 0.551D-03
 Coeff:      0.272D-02 0.529D-02 0.283D-01 0.108D+00 0.224D+00 0.631D+00
 Gap=     0.174 Goal=   None    Shift=    0.000
 RMSDP=1.48D-07 MaxDP=3.23D-06 DE=-1.47D-08 OVMax= 6.22D-06

 Cycle  13  Pass 1  IDiag  1:
 RMSU=  9.11D-08    CP:  9.99D-01  1.01D+00  4.88D-01  2.81D-01  7.96D-01
                    CP:  5.30D-01  7.68D-01  6.37D-01  5.99D-01  6.71D-01
                    CP:  6.72D-01  7.22D-01
 E= -535.813249150223     Delta-E=       -0.000000000905 Rises=F Damp=F
 DIIS: error= 6.30D-07 at cycle  13 NSaved=  13.
 NSaved=13 IEnMin=13 EnMin= -535.813249150223     IErMin=13 ErrMin= 6.30D-07
 ErrMax= 6.30D-07  0.00D+00 EMaxC= 1.00D-01 BMatC= 1.90D-10 BMatP= 1.42D-09
 IDIUse=1 WtCom= 1.00D+00 WtEn= 0.00D+00
 Coeff-Com:  0.426D-04-0.416D-04 0.415D-04-0.626D-05 0.126D-04 0.192D-04
 Coeff-Com:  0.275D-03 0.564D-04 0.827D-02 0.393D-01 0.104D+00 0.387D+00
 Coeff-Com:  0.461D+00
 Coeff:      0.426D-04-0.416D-04 0.415D-04-0.626D-05 0.126D-04 0.192D-04
 Coeff:      0.275D-03 0.564D-04 0.827D-02 0.393D-01 0.104D+00 0.387D+00
 Coeff:      0.461D+00
 Gap=     0.174 Goal=   None    Shift=    0.000
 RMSDP=5.09D-08 MaxDP=1.75D-06 DE=-9.05D-10 OVMax= 2.39D-06

 Cycle  14  Pass 1  IDiag  1:
 RMSU=  3.80D-08    CP:  9.99D-01  1.01D+00  4.88D-01  2.81D-01  7.96D-01
                    CP:  5.30D-01  7.68D-01  6.38D-01  5.98D-01  6.70D-01
                    CP:  6.77D-01  7.50D-01  7.82D-01
 E= -535.813249150372     Delta-E=       -0.000000000149 Rises=F Damp=F
 DIIS: error= 1.60D-07 at cycle  14 NSaved=  14.
 NSaved=14 IEnMin=14 EnMin= -535.813249150372     IErMin=14 ErrMin= 1.60D-07
 ErrMax= 1.60D-07  0.00D+00 EMaxC= 1.00D-01 BMatC= 1.05D-11 BMatP= 1.90D-10
 IDIUse=1 WtCom= 1.00D+00 WtEn= 0.00D+00
 Coeff-Com:  0.458D-05-0.270D-05 0.832D-05-0.106D-05 0.294D-05-0.577D-04
 Coeff-Com: -0.182D-03-0.563D-03 0.400D-03 0.492D-02 0.195D-01 0.995D-01
 Coeff-Com:  0.211D+00 0.665D+00
 Coeff:      0.458D-05-0.270D-05 0.832D-05-0.106D-05 0.294D-05-0.577D-04
 Coeff:     -0.182D-03-0.563D-03 0.400D-03 0.492D-02 0.195D-01 0.995D-01
 Coeff:      0.211D+00 0.665D+00
 Gap=     0.174 Goal=   None    Shift=    0.000
 RMSDP=1.43D-08 MaxDP=3.15D-07 DE=-1.49D-10 OVMax= 6.21D-07

 Cycle  15  Pass 1  IDiag  1:
 RMSU=  9.57D-09    CP:  9.99D-01  1.01D+00  4.88D-01  2.81D-01  7.96D-01
                    CP:  5.30D-01  7.68D-01  6.38D-01  5.98D-01  6.69D-01
                    CP:  6.83D-01  7.65D-01  7.85D-01  8.40D-01
 E= -535.813249150386     Delta-E=       -0.000000000014 Rises=F Damp=F
 DIIS: error= 2.67D-08 at cycle  15 NSaved=  15.
 NSaved=15 IEnMin=15 EnMin= -535.813249150386     IErMin=15 ErrMin= 2.67D-08
 ErrMax= 2.67D-08  0.00D+00 EMaxC= 1.00D-01 BMatC= 2.42D-13 BMatP= 1.05D-11
 IDIUse=1 WtCom= 1.00D+00 WtEn= 0.00D+00
 Coeff-Com: -0.243D-06 0.547D-06 0.103D-05-0.124D-06 0.567D-06-0.107D-04
 Coeff-Com: -0.470D-04-0.115D-03-0.258D-03-0.513D-03 0.250D-03 0.745D-02
 Coeff-Com:  0.320D-01 0.177D+00 0.785D+00
 Coeff:     -0.243D-06 0.547D-06 0.103D-05-0.124D-06 0.567D-06-0.107D-04
 Coeff:     -0.470D-04-0.115D-03-0.258D-03-0.513D-03 0.250D-03 0.745D-02
 Coeff:      0.320D-01 0.177D+00 0.785D+00
 Gap=     0.174 Goal=   None    Shift=    0.000
 RMSDP=2.97D-09 MaxDP=1.00D-07 DE=-1.38D-11 OVMax= 1.22D-07

 Error on total polarization charges =  0.01124
 SCF Done:  E(RB-P86) =  -535.813249150     A.U. after   15 cycles
            NFock= 15  Conv=0.30D-08     -V/T= 2.0045
 KE= 5.333991093521D+02 PE=-2.264107607129D+03 EE= 6.905516241387D+02
 Leave Link  502 at Mon Feb 22 21:24:48 2021, MaxMem=   104857600 cpu:             431.8 elap:              13.9
 (Enter /sw/arch/RedHatEnterpriseServer7/EB_production/2019/software/Gaussian/g16.c01/l601.exe)
 Copying SCF densities to generalized density rwf, IOpCl= 0 IROHF=0.

 **********************************************************************

            Population analysis using the SCF Density.

 **********************************************************************

 Orbital symmetries:
       Occupied  (A) (A) (A) (A) (A) (A) (A) (A) (A) (A) (A) (A)
                 (A) (A) (A) (A) (A) (A) (A) (A) (A) (A) (A) (A)
                 (A) (A) (A) (A) (A) (A) (A) (A) (A) (A) (A) (A)
                 (A) (A) (A)
       Virtual   (A) (A) (A) (A) (A) (A) (A) (A) (A) (A) (A) (A)
                 (A) (A) (A) (A) (A) (A) (A) (A) (A) (A) (A) (A)
                 (A) (A) (A) (A) (A) (A) (A) (A) (A) (A) (A) (A)
                 (A) (A) (A) (A) (A) (A) (A) (A) (A) (A) (A) (A)
                 (A) (A) (A) (A) (A) (A) (A) (A) (A) (A) (A) (A)
                 (A) (A) (A) (A) (A) (A) (A) (A) (A) (A) (A) (A)
                 (A) (A) (A) (A) (A) (A) (A) (A) (A) (A) (A) (A)
                 (A) (A) (A) (A) (A) (A) (A) (A) (A) (A) (A) (A)
                 (A) (A) (A) (A) (A) (A) (A) (A) (A) (A) (A) (A)
                 (A) (A) (A) (A) (A) (A) (A) (A) (A) (A) (A) (A)
                 (A) (A) (A) (A) (A) (A) (A) (A) (A) (A) (A) (A)
                 (A) (A) (A) (A) (A) (A) (A) (A) (A) (A) (A) (A)
                 (A) (A) (A) (A) (A) (A) (A) (A) (A) (A) (A) (A)
                 (A) (A) (A) (A) (A) (A) (A) (A) (A) (A) (A) (A)
                 (A) (A) (A) (A) (A) (A) (A) (A) (A) (A) (A) (A)
                 (A) (A) (A) (A) (A) (A) (A) (A) (A) (A) (A) (A)
                 (A) (A) (A) (A) (A) (A) (A) (A) (A) (A) (A) (A)
                 (A) (A) (A) (A) (A) (A) (A)
 The electronic state is 1-A.
 Alpha  occ. eigenvalues --  -18.82341 -18.82264 -18.75977 -18.75947 -10.03747
 Alpha  occ. eigenvalues --  -10.03712  -9.92049  -9.92037  -9.91391  -9.91381
 Alpha  occ. eigenvalues --   -1.01756  -1.01738  -0.92404  -0.92403  -0.75356
 Alpha  occ. eigenvalues --   -0.71760  -0.64988  -0.59380  -0.57024  -0.54384
 Alpha  occ. eigenvalues --   -0.46382  -0.45529  -0.44391  -0.43076  -0.42371
 Alpha  occ. eigenvalues --   -0.41568  -0.40388  -0.38634  -0.35516  -0.35470
 Alpha  occ. eigenvalues --   -0.34277  -0.33257  -0.32115  -0.31426  -0.30591
 Alpha  occ. eigenvalues --   -0.28551  -0.28335  -0.23738  -0.23434
 Alpha virt. eigenvalues --   -0.06042  -0.05354   0.01084   0.01393   0.03716
 Alpha virt. eigenvalues --    0.05435   0.05777   0.07129   0.08345   0.09444
 Alpha virt. eigenvalues --    0.10804   0.11498   0.11605   0.12419   0.13690
 Alpha virt. eigenvalues --    0.15784   0.16071   0.17593   0.18475   0.19081
 Alpha virt. eigenvalues --    0.20104   0.22468   0.23767   0.24525   0.25296
 Alpha virt. eigenvalues --    0.26061   0.26514   0.27008   0.29364   0.29602
 Alpha virt. eigenvalues --    0.30698   0.33245   0.34201   0.35497   0.36142
 Alpha virt. eigenvalues --    0.36723   0.38415   0.38914   0.39459   0.40097
 Alpha virt. eigenvalues --    0.40539   0.41229   0.42227   0.42365   0.42967
 Alpha virt. eigenvalues --    0.43513   0.44448   0.45356   0.45715   0.46478
 Alpha virt. eigenvalues --    0.47014   0.48176   0.49398   0.50385   0.51444
 Alpha virt. eigenvalues --    0.51869   0.54644   0.55592   0.56190   0.58043
 Alpha virt. eigenvalues --    0.59770   0.61521   0.61702   0.66134   0.67455
 Alpha virt. eigenvalues --    0.71223   0.74034   0.77019   0.79037   0.85630
 Alpha virt. eigenvalues --    0.88183   1.05103   1.08192   1.12961   1.16808
 Alpha virt. eigenvalues --    1.17346   1.18063   1.22393   1.22608   1.24236
 Alpha virt. eigenvalues --    1.25244   1.26610   1.28568   1.29367   1.30524
 Alpha virt. eigenvalues --    1.30923   1.31750   1.33155   1.33853   1.35282
 Alpha virt. eigenvalues --    1.38269   1.40099   1.40372   1.42325   1.43300
 Alpha virt. eigenvalues --    1.45419   1.46863   1.47617   1.50566   1.51483
 Alpha virt. eigenvalues --    1.54005   1.54451   1.54871   1.56188   1.57367
 Alpha virt. eigenvalues --    1.59399   1.61500   1.61753   1.66150   1.70398
 Alpha virt. eigenvalues --    1.73008   1.75737   1.76509   1.76602   1.77257
 Alpha virt. eigenvalues --    1.78018   1.78763   1.80031   1.85362   1.89705
 Alpha virt. eigenvalues --    1.90682   1.94059   1.95292   2.01368   2.04677
 Alpha virt. eigenvalues --    2.05981   2.07400   2.08862   2.11286   2.12668
 Alpha virt. eigenvalues --    2.14814   2.16454   2.17996   2.20405   2.24847
 Alpha virt. eigenvalues --    2.26839   2.27765   2.32906   2.37896   2.39826
 Alpha virt. eigenvalues --    2.42532   2.44837   2.45838   2.46594   2.47895
 Alpha virt. eigenvalues --    2.50022   2.50107   2.50672   2.51139   2.52309
 Alpha virt. eigenvalues --    2.52948   2.54423   2.55260   2.55417   2.56562
 Alpha virt. eigenvalues --    2.57264   2.57891   2.58841   2.59783   2.61212
 Alpha virt. eigenvalues --    2.62230   2.63113   2.65910   2.66334   2.67371
 Alpha virt. eigenvalues --    2.69779   2.70549   2.76451   2.76720   2.80089
 Alpha virt. eigenvalues --    2.81544   2.86762   2.88346   2.88842   2.92689
 Alpha virt. eigenvalues --    2.93664   3.00257   3.01285   3.01703   3.03360
 Alpha virt. eigenvalues --    3.07314   3.08154   3.13436   3.14288   3.16734
 Alpha virt. eigenvalues --    3.18761   3.29064   3.29159   3.31620   3.32662
 Alpha virt. eigenvalues --    3.33544   3.36202   3.37199   3.44465   3.46542
 Alpha virt. eigenvalues --    3.81279   3.83783   3.99927   4.00633   4.17490
 Alpha virt. eigenvalues --    4.17971  21.64690  21.66094  21.75067  21.79033
 Alpha virt. eigenvalues --   21.81260  21.83792  43.03373  43.04518  43.11016
 Alpha virt. eigenvalues --   43.12649
          Condensed to atoms (all electrons):
               1          2          3          4          5          6
     1  O    7.988007   0.633385  -0.128923  -0.135501  -0.009989  -0.001618
     2  C    0.633385   4.859832   0.342603   0.072518  -0.027957  -0.015609
     3  O   -0.128923   0.342603   7.891223  -0.134950   0.012189  -0.002879
     4  C   -0.135501   0.072518  -0.134950   5.602404   0.128332   0.000445
     5  C   -0.009989  -0.027957   0.012189   0.128332   5.364964   0.201589
     6  C   -0.001618  -0.015609  -0.002879   0.000445   0.201589   5.250814
     7  C    0.000017   0.000078   0.000142   0.008727  -0.015074   0.200155
     8  C   -0.000002  -0.000327  -0.000004  -0.000090  -0.010816  -0.011791
     9  O    0.000000  -0.000002  -0.000000   0.000115  -0.002176  -0.003374
    10  O   -0.000000  -0.000001  -0.000000   0.000009  -0.001026  -0.008733
    11  H    0.002029  -0.019477   0.289848   0.014014   0.000212   0.000162
    12  H    0.006917  -0.057975   0.004542   0.426993  -0.023812  -0.003663
    13  H    0.004872   0.013248   0.006140   0.343173  -0.037130  -0.015569
    14  H    0.000303  -0.012313   0.005241  -0.032453   0.411756  -0.034128
    15  H    0.004074   0.017824  -0.000343  -0.046253   0.401373  -0.050906
    16  H   -0.000086  -0.002076  -0.000040   0.000028  -0.049013   0.416991
    17  H    0.000046   0.001137   0.000168  -0.005411  -0.039932   0.399487
    18  H   -0.000002  -0.000163   0.000004  -0.000011  -0.014214  -0.022816
    19  H    0.000000  -0.000153  -0.000028   0.000451  -0.006556  -0.029703
    20  H   -0.000000   0.000000  -0.000000  -0.000001   0.000077  -0.000380
               7          8          9         10         11         12
     1  O    0.000017  -0.000002   0.000000  -0.000000   0.002029   0.006917
     2  C    0.000078  -0.000327  -0.000002  -0.000001  -0.019477  -0.057975
     3  O    0.000142  -0.000004  -0.000000  -0.000000   0.289848   0.004542
     4  C    0.008727  -0.000090   0.000115   0.000009   0.014014   0.426993
     5  C   -0.015074  -0.010816  -0.002176  -0.001026   0.000212  -0.023812
     6  C    0.200155  -0.011791  -0.003374  -0.008733   0.000162  -0.003663
     7  C    5.570863   0.053280  -0.132013  -0.117294  -0.000007  -0.000036
     8  C    0.053280   4.852348   0.604090   0.362020   0.000000  -0.000000
     9  O   -0.132013   0.604090   8.008599  -0.126135  -0.000000   0.000009
    10  O   -0.117294   0.362020  -0.126135   7.871383  -0.000000  -0.000003
    11  H   -0.000007   0.000000  -0.000000  -0.000000   0.378083  -0.000353
    12  H   -0.000036  -0.000000   0.000009  -0.000003  -0.000353   0.494564
    13  H    0.000706  -0.000363  -0.000043  -0.000000  -0.000602  -0.019477
    14  H   -0.006049   0.001064   0.000159   0.000007  -0.000164   0.005442
    15  H   -0.001855  -0.001858  -0.000013   0.000015  -0.000195  -0.005245
    16  H   -0.042108   0.006585  -0.000831   0.001282   0.000002   0.002351
    17  H   -0.038375  -0.006420   0.013908   0.001702  -0.000008   0.000155
    18  H    0.341684  -0.013352   0.008844   0.014366  -0.000000   0.000144
    19  H    0.410481  -0.023290  -0.005051  -0.000109   0.000000  -0.000045
    20  H    0.017114  -0.022942   0.001999   0.289537   0.000000  -0.000000
              13         14         15         16         17         18
     1  O    0.004872   0.000303   0.004074  -0.000086   0.000046  -0.000002
     2  C    0.013248  -0.012313   0.017824  -0.002076   0.001137  -0.000163
     3  O    0.006140   0.005241  -0.000343  -0.000040   0.000168   0.000004
     4  C    0.343173  -0.032453  -0.046253   0.000028  -0.005411  -0.000011
     5  C   -0.037130   0.411756   0.401373  -0.049013  -0.039932  -0.014214
     6  C   -0.015569  -0.034128  -0.050906   0.416991   0.399487  -0.022816
     7  C    0.000706  -0.006049  -0.001855  -0.042108  -0.038375   0.341684
     8  C   -0.000363   0.001064  -0.001858   0.006585  -0.006420  -0.013352
     9  O   -0.000043   0.000159  -0.000013  -0.000831   0.013908   0.008844
    10  O   -0.000000   0.000007   0.000015   0.001282   0.001702   0.014366
    11  H   -0.000602  -0.000164  -0.000195   0.000002  -0.000008  -0.000000
    12  H   -0.019477   0.005442  -0.005245   0.002351   0.000155   0.000144
    13  H    0.528566  -0.003422   0.008234  -0.000121   0.003215  -0.000081
    14  H   -0.003422   0.528594  -0.026101   0.006510  -0.004549   0.000311
    15  H    0.008234  -0.026101   0.551955  -0.004437   0.006636   0.003098
    16  H   -0.000121   0.006510  -0.004437   0.540892  -0.024731  -0.004675
    17  H    0.003215  -0.004549   0.006636  -0.024731   0.539543   0.008043
    18  H   -0.000081   0.000311   0.003098  -0.004675   0.008043   0.550402
    19  H    0.000108   0.002952   0.000182   0.005743  -0.003858  -0.020913
    20  H   -0.000000  -0.000002   0.000001  -0.000132  -0.000016  -0.000727
              19         20
     1  O    0.000000  -0.000000
     2  C   -0.000153   0.000000
     3  O   -0.000028  -0.000000
     4  C    0.000451  -0.000001
     5  C   -0.006556   0.000077
     6  C   -0.029703  -0.000380
     7  C    0.410481   0.017114
     8  C   -0.023290  -0.022942
     9  O   -0.005051   0.001999
    10  O   -0.000109   0.289537
    11  H    0.000000   0.000000
    12  H   -0.000045  -0.000000
    13  H    0.000108  -0.000000
    14  H    0.002952  -0.000002
    15  H    0.000182   0.000001
    16  H    0.005743  -0.000132
    17  H   -0.003858  -0.000016
    18  H   -0.020913  -0.000727
    19  H    0.486809  -0.000438
    20  H   -0.000438   0.381131
 Mulliken charges:
               1
     1  O   -0.363530
     2  C    0.195425
     3  O   -0.284934
     4  C   -0.242541
     5  C   -0.282798
     6  C   -0.268472
     7  C   -0.250438
     8  C    0.211867
     9  O   -0.368086
    10  O   -0.287020
    11  H    0.336455
    12  H    0.169491
    13  H    0.168547
    14  H    0.156842
    15  H    0.143815
    16  H    0.147865
    17  H    0.149260
    18  H    0.150058
    19  H    0.183417
    20  H    0.334778
 Sum of Mulliken charges =  -0.00000
 Mulliken charges with hydrogens summed into heavy atoms:
               1
     1  O   -0.363530
     2  C    0.195425
     3  O    0.051521
     4  C    0.095497
     5  C    0.017858
     6  C    0.028653
     7  C    0.083038
     8  C    0.211867
     9  O   -0.368086
    10  O    0.047758
 Electronic spatial extent (au):  <R**2>=           2849.8125
 Charge=             -0.0000 electrons
 Dipole moment (field-independent basis, Debye):
    X=             -0.9149    Y=              0.1631    Z=             -1.5419  Tot=              1.8003
 Quadrupole moment (field-independent basis, Debye-Ang):
   XX=            -61.7525   YY=            -65.6815   ZZ=            -58.1693
   XY=             20.5394   XZ=             -0.1765   YZ=             -3.7757
 Traceless Quadrupole moment (field-independent basis, Debye-Ang):
   XX=              0.1153   YY=             -3.8138   ZZ=              3.6985
   XY=             20.5394   XZ=             -0.1765   YZ=             -3.7757
 Octapole moment (field-independent basis, Debye-Ang**2):
  XXX=            -67.1602  YYY=              0.8436  ZZZ=             -2.7413  XYY=              0.3660
  XXY=             17.9942  XXZ=            -31.4406  XZZ=             11.6099  YZZ=              1.0415
  YYZ=             -3.1108  XYZ=              8.3373
 Hexadecapole moment (field-independent basis, Debye-Ang**3):
 XXXX=          -2562.7621 YYYY=           -249.6088 ZZZZ=           -172.9053 XXXY=            490.5180
 XXXZ=           -120.1211 YYYX=             37.4872 YYYZ=             -6.7554 ZZZX=             -8.8385
 ZZZY=             -3.5130 XXYY=           -618.8950 XXZZ=           -529.1104 YYZZ=            -64.3551
 XXYZ=            -68.9775 YYXZ=             -5.8421 ZZXY=             14.5399
 N-N= 5.043436244881D+02 E-N=-2.264107605775D+03  KE= 5.333991093521D+02
 No NMR shielding tensors so no spin-rotation constants.
 Leave Link  601 at Mon Feb 22 21:24:49 2021, MaxMem=   104857600 cpu:               9.1 elap:               0.4
 (Enter /sw/arch/RedHatEnterpriseServer7/EB_production/2019/software/Gaussian/g16.c01/l701.exe)
 ... and contract with generalized density number  0.
 Compute integral first derivatives.
 R6Disp: Adding Grimme-D3 dispersion energy 1st derivatives to the gradient.
 PrsmSu:  requested number of processors reduced to:  29 ShMem   1 Linda.
 D1PCM: PCM CHGder 1st derivatives, ID1Alg=3 FixD1E=F DoIter=F DoCFld=F I1PDM=0.
 GePol: Maximum number of non-zero 1st derivatives   =     213
 CoulSu:  requested number of processors reduced to:  29 ShMem   1 Linda.
 CoulSu:  requested number of processors reduced to:  30 ShMem   1 Linda.
 Leave Link  701 at Mon Feb 22 21:24:50 2021, MaxMem=   104857600 cpu:              25.4 elap:               0.9
 (Enter /sw/arch/RedHatEnterpriseServer7/EB_production/2019/software/Gaussian/g16.c01/l702.exe)
 L702 exits ... SP integral derivatives will be done elsewhere.
 Leave Link  702 at Mon Feb 22 21:24:50 2021, MaxMem=   104857600 cpu:               0.8 elap:               0.1
 (Enter /sw/arch/RedHatEnterpriseServer7/EB_production/2019/software/Gaussian/g16.c01/l703.exe)
 Integral derivatives from FoFJK, PRISM(SPDF).
 Compute integral first derivatives, UseDBF=F ICtDFT=           0.
 Calling FoFJK, ICntrl=      2527 FMM=F ISym2X=0 I1Cent= 0 IOpClX= 0 NMat=1 NMatS=1 NMatT=0.
 FoFJK:  IHMeth= 1 ICntrl=    2527 DoSepK=F KAlg= 0 I1Cent=           0 FoldK=F
 IRaf=         0 NMat=       1 IRICut=       1 DoRegI=T DoRafI=F ISym2E= 0 IDoP0=0 IntGTp=1.
 FoFCou: FMM=F IPFlag=           0 FMFlag=      100000 FMFlg1=         800
         NFxFlg=           0 DoJE=F BraDBF=F KetDBF=F FulRan=T
         wScrn=  0.000000 ICntrl=      2527 IOpCl=  0 I1Cent=           0 NGrid=           0
         NMat0=    1 NMatS0=      1 NMatT0=    0 NMatD0=    1 NMtDS0=    0 NMtDT0=    0
 Symmetry not used in FoFCou.
 Leave Link  703 at Mon Feb 22 21:24:51 2021, MaxMem=   104857600 cpu:              49.2 elap:               1.6
 (Enter /sw/arch/RedHatEnterpriseServer7/EB_production/2019/software/Gaussian/g16.c01/l716.exe)
 Dipole        =-3.59946568D-01 6.41878173D-02-6.06625627D-01
 ***** Axes restored to original set *****
 -------------------------------------------------------------------
 Center     Atomic                   Forces (Hartrees/Bohr)
 Number     Number              X              Y              Z
 -------------------------------------------------------------------
      1        8           0.002692219   -0.016186549    0.015415204
      2        6          -0.000604135    0.067289816   -0.042151858
      3        8           0.003096432   -0.032243791    0.024550809
      4        6          -0.004766529   -0.017459732    0.018696996
      5        6          -0.000124172   -0.010988464    0.000643112
      6        6           0.001432603    0.008119451    0.002343967
      7        6          -0.010339910    0.020068051   -0.014520283
      8        6           0.026511156   -0.073093115    0.019367816
      9        8          -0.011906900    0.019892793   -0.007544400
     10        8          -0.018197038    0.035467253   -0.009908657
     11        1          -0.010471537   -0.002391506   -0.016134197
     12        1           0.001585479    0.004143186   -0.002546560
     13        1           0.005053751   -0.006573840    0.002320402
     14        1           0.000984572    0.002381350    0.003676599
     15        1          -0.003545206    0.003523557    0.000729287
     16        1          -0.001137974   -0.002379393   -0.004317701
     17        1           0.002647381   -0.003923623    0.000216686
     18        1          -0.003494148    0.005203926    0.000296635
     19        1           0.001546053   -0.000879263    0.004834772
     20        1           0.019037903    0.000029894    0.004031370
 -------------------------------------------------------------------
 Cartesian Forces:  Max     0.073093115 RMS     0.018153392
 Leave Link  716 at Mon Feb 22 21:24:53 2021, MaxMem=   104857600 cpu:               1.0 elap:               0.1
 (Enter /sw/arch/RedHatEnterpriseServer7/EB_production/2019/software/Gaussian/g16.c01/l103.exe)

 GradGradGradGradGradGradGradGradGradGradGradGradGradGradGradGradGradGrad
 Berny optimization.
 FormGI is forming the generalized inverse of G from B-inverse, IUseBI=4.
 GSVD:  received Info=                   1 from GESDD.
 Internal  Forces:  Max     0.034880580 RMS     0.009308268
 Search for a local minimum.
 Step number   1 out of a maximum of  104
 All quantities printed in internal units (Hartrees-Bohrs-Radians)
 RMS Force = .93083D-02 SwitMx=.10000D-02 MixMth= 1
 Mixed Optimization -- RFO/linear search
 Second derivative matrix not updated -- first step.
 ITU=  0
     Eigenvalues ---    0.00230   0.00230   0.00230   0.01092   0.01099
     Eigenvalues ---    0.01384   0.01388   0.02290   0.02299   0.03451
     Eigenvalues ---    0.03526   0.04137   0.04225   0.04774   0.04790
     Eigenvalues ---    0.05432   0.05433   0.08137   0.08272   0.09484
     Eigenvalues ---    0.09601   0.12074   0.12174   0.12854   0.12945
     Eigenvalues ---    0.16000   0.16000   0.21959   0.21980   0.21989
     Eigenvalues ---    0.22007   0.24996   0.25000   0.25000   0.25000
     Eigenvalues ---    0.27282   0.27385   0.27452   0.34277   0.34314
     Eigenvalues ---    0.34326   0.34351   0.34355   0.34468   0.34493
     Eigenvalues ---    0.34656   0.35106   0.35166   0.51069   0.51148
     Eigenvalues ---    0.54015   0.54151   0.82549   0.82840
 RFO step:  Lambda=-3.02847131D-02 EMin= 2.30000000D-03
 Linear search not attempted -- first point.
 Maximum step size (   0.300) exceeded in Quadratic search.
    -- Step size scaled by   0.851
 Iteration  1 RMS(Cart)=  0.05161575 RMS(Int)=  0.00155210
 Iteration  2 RMS(Cart)=  0.00208833 RMS(Int)=  0.00008192
 Iteration  3 RMS(Cart)=  0.00000163 RMS(Int)=  0.00008190
 Iteration  4 RMS(Cart)=  0.00000000 RMS(Int)=  0.00008190
 ITry= 1 IFail=0 DXMaxC= 2.08D-01 DCOld= 1.00D+10 DXMaxT= 3.00D-01 DXLimC= 3.00D+00 Rises=F
 Variable       Old X    -DE/DX   Delta X   Delta X   Delta X     New X
                                 (Linear)    (Quad)   (Total)
    R1        2.36420  -0.02228   0.00000  -0.02207  -0.02207   2.34212
    R2        2.55894  -0.00916   0.00000  -0.01362  -0.01362   2.54532
    R3        2.78707   0.01362   0.00000   0.03033   0.03033   2.81740
    R4        1.85502  -0.00585   0.00000  -0.00920  -0.00920   1.84582
    R5        2.93353  -0.00307   0.00000  -0.00856  -0.00856   2.92497
    R6        2.06804   0.00079   0.00000   0.00180   0.00180   2.06984
    R7        2.06237   0.00816   0.00000   0.01841   0.01841   2.08078
    R8        2.93736  -0.00997   0.00000  -0.02797  -0.02797   2.90939
    R9        2.06865   0.00425   0.00000   0.00969   0.00969   2.07834
   R10        2.06784   0.00474   0.00000   0.01079   0.01079   2.07863
   R11        2.93502  -0.00583   0.00000  -0.01631  -0.01631   2.91871
   R12        2.06735   0.00489   0.00000   0.01114   0.01114   2.07849
   R13        2.06742   0.00436   0.00000   0.00992   0.00992   2.07734
   R14        2.78803   0.01316   0.00000   0.02935   0.02935   2.81738
   R15        2.06548   0.00568   0.00000   0.01290   0.01290   2.07838
   R16        2.06507   0.00463   0.00000   0.01051   0.01051   2.07557
   R17        2.36570  -0.02384   0.00000  -0.02370  -0.02370   2.34200
   R18        2.56018  -0.00935   0.00000  -0.01394  -0.01394   2.54624
   R19        1.85425  -0.00495   0.00000  -0.00778  -0.00778   1.84647
    A1        2.07150   0.02113   0.00000   0.06419   0.06414   2.13564
    A2        2.11220   0.01359   0.00000   0.04128   0.04124   2.15344
    A3        2.09946  -0.03472   0.00000  -0.10534  -0.10539   1.99407
    A4        2.09777  -0.03425   0.00000  -0.15316  -0.15316   1.94462
    A5        1.96282   0.00030   0.00000   0.00010   0.00010   1.96292
    A6        1.91216  -0.00470   0.00000  -0.02976  -0.02969   1.88248
    A7        1.88153   0.00297   0.00000   0.01775   0.01780   1.89934
    A8        1.90528   0.00395   0.00000   0.01960   0.01958   1.92486
    A9        1.91687  -0.00298   0.00000  -0.01226  -0.01227   1.90459
   A10        1.88349   0.00040   0.00000   0.00444   0.00456   1.88804
   A11        1.97300  -0.00673   0.00000  -0.02263  -0.02259   1.95042
   A12        1.90996   0.00168   0.00000   0.00460   0.00466   1.91461
   A13        1.89173   0.00223   0.00000   0.00718   0.00720   1.89893
   A14        1.89548   0.00275   0.00000   0.01127   0.01126   1.90674
   A15        1.90460   0.00204   0.00000   0.00706   0.00706   1.91166
   A16        1.88732  -0.00184   0.00000  -0.00712  -0.00717   1.88015
   A17        1.95826  -0.00531   0.00000  -0.01783  -0.01780   1.94046
   A18        1.90546   0.00186   0.00000   0.00791   0.00790   1.91336
   A19        1.89852   0.00260   0.00000   0.01173   0.01169   1.91021
   A20        1.90472   0.00163   0.00000   0.00465   0.00469   1.90941
   A21        1.90872   0.00080   0.00000  -0.00031  -0.00026   1.90846
   A22        1.88683  -0.00148   0.00000  -0.00582  -0.00588   1.88096
   A23        1.97859  -0.00706   0.00000  -0.02491  -0.02501   1.95358
   A24        1.89860   0.00171   0.00000   0.01118   0.01130   1.90990
   A25        1.91227   0.00263   0.00000   0.00406   0.00369   1.91596
   A26        1.90076   0.00439   0.00000   0.02557   0.02572   1.92647
   A27        1.88920  -0.00022   0.00000  -0.01379  -0.01397   1.87523
   A28        1.88210  -0.00122   0.00000  -0.00109  -0.00105   1.88106
   A29        2.10960   0.01052   0.00000   0.03214   0.03199   2.14159
   A30        2.10205  -0.03224   0.00000  -0.09765  -0.09780   2.00425
   A31        2.07122   0.02175   0.00000   0.06625   0.06610   2.13732
   A32        2.10116  -0.03488   0.00000  -0.15596  -0.15596   1.94520
    D1       -0.01439   0.00007   0.00000  -0.00056  -0.00064  -0.01502
    D2        3.11883   0.00094   0.00000   0.01670   0.01677   3.13560
    D3       -1.99634  -0.00075   0.00000   0.00497   0.00493  -1.99141
    D4        0.12583   0.00117   0.00000   0.00906   0.00910   0.13493
    D5        2.17121   0.00077   0.00000   0.00820   0.00812   2.17933
    D6        1.15382  -0.00168   0.00000  -0.01278  -0.01277   1.14105
    D7       -3.00719   0.00024   0.00000  -0.00870  -0.00860  -3.01579
    D8       -0.96181  -0.00016   0.00000  -0.00956  -0.00959  -0.97140
    D9       -3.06111  -0.00196   0.00000  -0.01864  -0.01866  -3.07977
   D10       -0.94616  -0.00176   0.00000  -0.01613  -0.01614  -0.96231
   D11        1.10838  -0.00175   0.00000  -0.01798  -0.01798   1.09040
   D12        1.09599   0.00104   0.00000   0.00534   0.00534   1.10133
   D13       -3.07225   0.00124   0.00000   0.00784   0.00786  -3.06440
   D14       -1.01770   0.00125   0.00000   0.00600   0.00602  -1.01168
   D15       -0.96581  -0.00005   0.00000  -0.00452  -0.00453  -0.97034
   D16        1.14914   0.00015   0.00000  -0.00202  -0.00202   1.14712
   D17       -3.07950   0.00016   0.00000  -0.00386  -0.00385  -3.08335
   D18       -3.12300  -0.00022   0.00000  -0.00085  -0.00087  -3.12387
   D19       -1.00921  -0.00034   0.00000  -0.00118  -0.00122  -1.01043
   D20        1.04611   0.00042   0.00000   0.00302   0.00304   1.04915
   D21        1.03707   0.00013   0.00000   0.00022   0.00024   1.03730
   D22       -3.13233   0.00000   0.00000  -0.00012  -0.00012  -3.13244
   D23       -1.07701   0.00076   0.00000   0.00408   0.00415  -1.07286
   D24       -1.01661  -0.00037   0.00000  -0.00163  -0.00166  -1.01826
   D25        1.09718  -0.00050   0.00000  -0.00196  -0.00201   1.09517
   D26       -3.13068   0.00027   0.00000   0.00224   0.00226  -3.12842
   D27       -3.13696   0.00172   0.00000   0.01981   0.01977  -3.11719
   D28        1.02891  -0.00043   0.00000  -0.00426  -0.00425   1.02466
   D29       -1.02464  -0.00144   0.00000  -0.01175  -0.01176  -1.03640
   D30        1.03201   0.00170   0.00000   0.01826   0.01824   1.05024
   D31       -1.08531  -0.00044   0.00000  -0.00581  -0.00579  -1.09109
   D32       -3.13886  -0.00146   0.00000  -0.01330  -0.01330   3.13103
   D33       -1.02877   0.00208   0.00000   0.02277   0.02276  -1.00600
   D34        3.13711  -0.00006   0.00000  -0.00130  -0.00126   3.13585
   D35        1.08356  -0.00108   0.00000  -0.00879  -0.00877   1.07478
   D36        1.13056  -0.00170   0.00000  -0.03177  -0.03152   1.09904
   D37       -2.03811   0.00007   0.00000   0.00194   0.00204  -2.03606
   D38       -3.03652  -0.00108   0.00000  -0.01580  -0.01573  -3.05226
   D39        0.07800   0.00070   0.00000   0.01791   0.01783   0.09582
   D40       -0.99471  -0.00026   0.00000  -0.01079  -0.01088  -1.00559
   D41        2.11981   0.00152   0.00000   0.02292   0.02268   2.14249
   D42       -3.11086  -0.00115   0.00000  -0.02193  -0.02214  -3.13300
   D43        0.00425   0.00044   0.00000   0.01059   0.01081   0.01506
         Item               Value     Threshold  Converged?
 Maximum Force            0.034881     0.000450     NO 
 RMS     Force            0.009308     0.000300     NO 
 Maximum Displacement     0.208150     0.001800     NO 
 RMS     Displacement     0.053067     0.001200     NO 
 Predicted change in Energy=-1.626309D-02
 Lowest energy point so far.  Saving SCF results.
 GradGradGradGradGradGradGradGradGradGradGradGradGradGradGradGradGradGrad

 Leave Link  103 at Mon Feb 22 21:24:53 2021, MaxMem=   104857600 cpu:               5.0 elap:               0.2
 (Enter /sw/arch/RedHatEnterpriseServer7/EB_production/2019/software/Gaussian/g16.c01/l202.exe)
                          Input orientation:                          
 ---------------------------------------------------------------------
 Center     Atomic      Atomic             Coordinates (Angstroms)
 Number     Number       Type             X           Y           Z
 ---------------------------------------------------------------------
      1          8           0        0.718102    0.765341    1.532306
      2          6           0        0.965476   -0.030697    2.449495
      3          8           0        1.664592    0.325448    3.544302
      4          6           0        0.511276   -1.450731    2.448066
      5          6           0       -0.515190   -1.744562    3.568693
      6          6           0       -0.906695   -3.233018    3.607816
      7          6           0       -1.949729   -3.506809    4.713549
      8          6           0       -2.316173   -4.950031    4.788362
      9          8           0       -1.497538   -5.834667    5.076801
     10          8           0       -3.606325   -5.221486    4.510276
     11          1           0        1.945559    1.259871    3.499744
     12          1           0        0.073122   -1.662248    1.466746
     13          1           0        1.387510   -2.104143    2.581064
     14          1           0       -0.094081   -1.454715    4.542467
     15          1           0       -1.412861   -1.132625    3.396533
     16          1           0       -1.320136   -3.532025    2.633437
     17          1           0       -0.010765   -3.842354    3.793376
     18          1           0       -2.844457   -2.893378    4.532473
     19          1           0       -1.538947   -3.220329    5.691071
     20          1           0       -3.793602   -6.177851    4.581222
 ---------------------------------------------------------------------
                    Distance matrix (angstroms):
                    1          2          3          4          5
     1  O    0.000000
     2  C    1.239397   0.000000
     3  O    2.266600   1.346924   0.000000
     4  C    2.406734   1.490905   2.384676   0.000000
     5  C    3.459407   2.526323   3.006158   1.547829   0.000000
     6  C    4.789006   3.886077   4.390698   2.555819   1.539581
     7  C    5.957256   5.070278   5.395985   3.926375   2.544428
     8  C    7.243908   6.359195   6.724942   5.071149   3.873779
     9  O    7.812337   6.830464   7.091871   5.492220   4.468596
    10  O    7.963107   7.217512   7.712597   5.951970   4.746651
    11  H    2.371080   1.931101   0.976767   3.241999   3.884155
    12  H    2.512665   2.103343   3.286328   1.095311   2.184277
    13  H    3.127608   2.120048   2.628214   1.101100   2.173701
    14  H    3.827448   2.744270   2.694113   2.180135   1.099809
    15  H    3.408609   2.787043   3.408596   2.168659   1.099963
    16  H    4.882034   4.185350   4.961690   2.778528   2.172018
    17  H    5.184065   4.157859   4.498825   2.793250   2.169253
    18  H    5.922756   5.200896   5.627507   4.205582   2.770222
    19  H    6.186692   5.191695   5.238684   4.225160   2.780369
    20  H    8.823790   8.061054   8.553361   6.740029   5.606001
                    6          7          8          9         10
     6  C    0.000000
     7  C    1.544515   0.000000
     8  C    2.515641   1.490895   0.000000
     9  O    3.045585   2.399031   1.239331   0.000000
    10  O    3.472239   2.392854   1.347410   2.268023   0.000000
    11  H    5.322883   6.274379   7.641059   8.042045   8.593753
    12  H    2.830466   4.246888   5.248940   5.736597   5.955634
    13  H    2.755350   4.201444   5.166093   5.335637   6.195005
    14  H    2.167089   2.771965   4.149143   4.630246   5.150288
    15  H    2.170829   2.767582   4.162421   4.993964   4.771845
    16  H    1.099887   2.173451   2.765236   3.362091   3.406386
    17  H    1.099279   2.172301   2.744422   2.797675   3.917143
    18  H    2.173768   1.099829   2.138781   3.280498   2.449699
    19  H    2.177121   1.098346   2.100199   2.685853   3.110139
    20  H    4.237191   3.248360   1.932161   2.373875   0.977108
                   11         12         13         14         15
    11  H    0.000000
    12  H    4.022174   0.000000
    13  H    3.531569   1.778929   0.000000
    14  H    3.551955   3.087246   2.542434   0.000000
    15  H    4.124763   2.492533   3.074233   1.776538   0.000000
    16  H    5.863234   2.607374   3.061525   3.076170   2.519530
    17  H    5.472305   3.189530   2.538947   2.503777   3.076685
    18  H    6.423414   4.407564   4.726566   3.103936   2.537731
    19  H    6.084068   4.782395   4.413861   2.554275   3.104724
    20  H    9.456599   6.711347   6.887645   5.999664   5.703133
                   16         17         18         19         20
    16  H    0.000000
    17  H    1.776574   0.000000
    18  H    2.517491   3.078414   0.000000
    19  H    3.081259   2.514658   1.775839   0.000000
    20  H    4.112456   4.514987   3.419213   3.881001   0.000000
 Stoichiometry    C6H10O4
 Framework group  C1[X(C6H10O4)]
 Deg. of freedom    54
 Full point group                 C1      NOp   1
 RotChk:  IX=0 Diff= 6.23D-02
 Largest Abelian subgroup         C1      NOp   1
 Largest concise Abelian subgroup C1      NOp   1
                         Standard orientation:                         
 ---------------------------------------------------------------------
 Center     Atomic      Atomic             Coordinates (Angstroms)
 Number     Number       Type             X           Y           Z
 ---------------------------------------------------------------------
      1          8           0        3.989935   -1.032948    0.148028
      2          6           0        3.192686   -0.084747    0.110424
      3          8           0        3.477607    1.072314   -0.517456
      4          6           0        1.840981   -0.124090    0.738233
      5          6           0        0.701217   -0.060999   -0.307106
      6          6           0       -0.684604   -0.014369    0.361948
      7          6           0       -1.812436    0.022834   -0.692632
      8          6           0       -3.161409    0.101980   -0.062731
      9          8           0       -3.520379    1.062985    0.632648
     10          8           0       -3.960149   -0.956725   -0.300786
     11          1           0        4.372687    1.055137   -0.908109
     12          1           0        1.769075   -1.047310    1.323213
     13          1           0        1.744935    0.728332    1.428575
     14          1           0        0.828088    0.829003   -0.940651
     15          1           0        0.766414   -0.946393   -0.956526
     16          1           0       -0.814430   -0.897384    1.004740
     17          1           0       -0.753101    0.878125    1.000052
     18          1           0       -1.741577   -0.866654   -1.335605
[...]
   11   H     11    1.3000  1.000      4.399611     -1.213232     -0.657278
   12   H     12    1.3000  1.000      1.793397      1.622991      0.439155
   13   H     13    1.3000  1.000      1.811559      1.041957     -1.249569
   14   H     14    1.3000  1.000      0.816801     -1.144423     -0.518395
   15   H     15    1.3000  1.000      0.799941     -0.588531      1.163308
   16   H     16    1.3000  1.000     -0.752992      1.297468      0.520189
   17   H     17    1.3000  1.000     -0.739288      0.737949     -1.153894
   18   H     18    1.3000  1.000     -1.748370     -0.919813      1.250072
   19   H     19    1.3000  1.000     -1.733009     -1.478348     -0.415252
   20   H     20    1.3000  1.000     -5.015926     -0.418891      0.141121
 ------------------------------------------------------------------------------
 One-electron integrals computed using PRISM.
 PrsmSu:  requested number of processors reduced to:  28 ShMem   1 Linda.
 NBasis=   250 RedAO= T EigKep=  9.06D-05  NBF=   250
 NBsUse=   250 1.00D-06 EigRej= -1.00D+00 NBFU=   250
 Initial guess from the checkpoint file:  "WNLRTRBMVRJNCN-UHFFFAOYSA-N.chk"
 B after Tr=    -0.000000    0.000000   -0.000000
         Rot=    1.000000   -0.000000   -0.000000    0.000000 Ang=   0.00 deg.
 Requested convergence on RMS density matrix=1.00D-08 within 128 cycles.
 Requested convergence on MAX density matrix=1.00D-06.
 Requested convergence on             energy=1.00D-06.
 No special actions if energy rises.
 Inv3:  Mode=1 IEnd=     6212163.
 Iteration    1 A*A^-1 deviation from unit magnitude is 3.55D-15 for    640.
 Iteration    1 A*A^-1 deviation from orthogonality  is 4.00D-15 for   1140    492.
 Iteration    1 A^-1*A deviation from unit magnitude is 3.33D-15 for    640.
 Iteration    1 A^-1*A deviation from orthogonality  is 3.02D-15 for   1000    187.
 Error on nuclear    polarization charges =  0.01389
 Error on electronic polarization charges = -0.04340
 SCF Done:  E(RB-P86) =  -535.825606755     A.U. after   11 cycles
            NFock= 11  Conv=0.27D-08     -V/T= 2.0044
 --------------------------------------------------------------------
 Variational C-PCM results
 =========================
 <psi(f)|   H    |psi(f)>                     (a.u.) =    -535.798181
 <psi(f)|H+V(f)/2|psi(f)>                     (a.u.) =    -535.825607
 Total free energy in solution:
 - with all non electrostatic terms           (a.u.) =    -535.811720
 --------------------------------------------------------------------
 (Polarized solute)-Solvent               (kcal/mol) =     -17.21
 --------------------------------------------------------------------
 Cavitation energy                        (kcal/mol) =      24.97
 Dispersion energy                        (kcal/mol) =     -17.77
 Repulsion energy                         (kcal/mol) =       1.51
 Total non electrostatic                  (kcal/mol) =       8.71
 --------------------------------------------------------------------
 Partition over spheres:
 Sphere  on Atom  Surface  Charge   GEl     GCav    GDR
    1      O1      20.46   0.250   -3.89    2.54   -1.79
    2      C2       9.81  -0.026   -0.16    1.15   -0.55
    3      O3      15.60   0.094   -0.60    1.94   -1.32
    4      C4       9.07  -0.019   -0.11    1.07   -0.42
    5      C5       8.00  -0.010   -0.09    0.94   -0.32
    6      C6       7.61  -0.000   -0.13    0.89   -0.24
    7      C7       8.65  -0.027   -0.25    1.02   -0.33
    8      C8      10.72  -0.032   -0.21    1.26   -0.74
    9      O9      19.40   0.239   -3.48    2.41   -1.60
   10      O10     15.93   0.095   -0.64    1.98   -1.44
   11      H11      8.47  -0.151   -2.73    1.19   -0.90
   12      H12      6.52  -0.036   -0.19    0.92   -0.72
   13      H13      6.55  -0.040   -0.35    0.92   -0.73
   14      H14      6.44  -0.027   -0.21    0.91   -0.61
   15      H15      6.57  -0.027   -0.22    0.93   -0.73
   16      H16      6.56  -0.024   -0.12    0.93   -0.70
   17      H17      6.56  -0.024   -0.13    0.93   -0.69
   18      H18      6.57  -0.042   -0.46    0.93   -0.76
   19      H19      6.57  -0.043   -0.49    0.93   -0.76
   20      H20      8.46  -0.150   -2.76    1.19   -0.89
 --------------------------------------------------------------------
 - cavitation energy not included in the total energy.
 - dispersion energy not included in the total energy.
 - repulsion  energy not included in the total energy.
 After PCM corrections, the energy is  -535.825606755     a.u.
 --------------------------------------------------------------------
 Writing COSMO formatted file "WNLRTRBMVRJNCN-UHFFFAOYSA-N.cosmo"
 Recomputed dielectric energy= -0.027435 old= -0.027426 diff=-8.83D-06

 **********************************************************************

            Population analysis using the SCF Density.

 **********************************************************************

 Orbital symmetries:
       Occupied  (A) (A) (A) (A) (A) (A) (A) (A) (A) (A) (A) (A)
                 (A) (A) (A) (A) (A) (A) (A) (A) (A) (A) (A) (A)
                 (A) (A) (A) (A) (A) (A) (A) (A) (A) (A) (A) (A)
                 (A) (A) (A)
       Virtual   (A) (A) (A) (A) (A) (A) (A) (A) (A) (A) (A) (A)
                 (A) (A) (A) (A) (A) (A) (A) (A) (A) (A) (A) (A)
                 (A) (A) (A) (A) (A) (A) (A) (A) (A) (A) (A) (A)
                 (A) (A) (A) (A) (A) (A) (A) (A) (A) (A) (A) (A)
                 (A) (A) (A) (A) (A) (A) (A) (A) (A) (A) (A) (A)
                 (A) (A) (A) (A) (A) (A) (A) (A) (A) (A) (A) (A)
                 (A) (A) (A) (A) (A) (A) (A) (A) (A) (A) (A) (A)
                 (A) (A) (A) (A) (A) (A) (A) (A) (A) (A) (A) (A)
                 (A) (A) (A) (A) (A) (A) (A) (A) (A) (A) (A) (A)
                 (A) (A) (A) (A) (A) (A) (A) (A) (A) (A) (A) (A)
                 (A) (A) (A) (A) (A) (A) (A) (A) (A) (A) (A) (A)
                 (A) (A) (A) (A) (A) (A) (A) (A) (A) (A) (A) (A)
                 (A) (A) (A) (A) (A) (A) (A) (A) (A) (A) (A) (A)
                 (A) (A) (A) (A) (A) (A) (A) (A) (A) (A) (A) (A)
                 (A) (A) (A) (A) (A) (A) (A) (A) (A) (A) (A) (A)
                 (A) (A) (A) (A) (A) (A) (A) (A) (A) (A) (A) (A)
                 (A) (A) (A) (A) (A) (A) (A) (A) (A) (A) (A) (A)
                 (A) (A) (A) (A) (A) (A) (A)
 The electronic state is 1-A.
 Alpha  occ. eigenvalues --  -18.82002 -18.81932 -18.77064 -18.76991 -10.03321
 Alpha  occ. eigenvalues --  -10.03270  -9.91242  -9.91115  -9.90488  -9.90016
 Alpha  occ. eigenvalues --   -1.02160  -1.02146  -0.93992  -0.93921  -0.74554
 Alpha  occ. eigenvalues --   -0.70529  -0.63813  -0.57330  -0.54190  -0.52278
 Alpha  occ. eigenvalues --   -0.45391  -0.45245  -0.44035  -0.43742  -0.43363
 Alpha  occ. eigenvalues --   -0.41115  -0.40588  -0.36703  -0.36567  -0.36269
 Alpha  occ. eigenvalues --   -0.34522  -0.32279  -0.31555  -0.30926  -0.29787
 Alpha  occ. eigenvalues --   -0.29251  -0.28712  -0.24939  -0.24572
 Alpha virt. eigenvalues --   -0.04903  -0.04612   0.02081   0.02675   0.04299
 Alpha virt. eigenvalues --    0.06056   0.06338   0.07653   0.09115   0.10510
 Alpha virt. eigenvalues --    0.11016   0.11997   0.13050   0.13707   0.14745
 Alpha virt. eigenvalues --    0.15537   0.16257   0.17657   0.18887   0.19370
 Alpha virt. eigenvalues --    0.21005   0.22093   0.24188   0.24573   0.25244
 Alpha virt. eigenvalues --    0.26568   0.27536   0.28315   0.29433   0.30877
 Alpha virt. eigenvalues --    0.32379   0.33525   0.33844   0.35872   0.36518
 Alpha virt. eigenvalues --    0.36935   0.38354   0.38820   0.39304   0.40619
 Alpha virt. eigenvalues --    0.40863   0.41951   0.42417   0.42470   0.43501
 Alpha virt. eigenvalues --    0.43758   0.44884   0.45392   0.46010   0.46638
 Alpha virt. eigenvalues --    0.47125   0.48165   0.49315   0.50404   0.51606
 Alpha virt. eigenvalues --    0.53671   0.54463   0.56845   0.57266   0.58686
 Alpha virt. eigenvalues --    0.59757   0.61994   0.64491   0.67466   0.69095
 Alpha virt. eigenvalues --    0.73924   0.75092   0.80080   0.81153   0.85725
 Alpha virt. eigenvalues --    0.90606   1.06836   1.07899   1.13576   1.16927
 Alpha virt. eigenvalues --    1.17946   1.17995   1.22391   1.23098   1.23663
 Alpha virt. eigenvalues --    1.24944   1.26492   1.29273   1.29985   1.30384
 Alpha virt. eigenvalues --    1.31051   1.31668   1.32716   1.33715   1.36103
 Alpha virt. eigenvalues --    1.36565   1.38581   1.40203   1.42494   1.44516
 Alpha virt. eigenvalues --    1.46575   1.47231   1.48758   1.49511   1.51318
 Alpha virt. eigenvalues --    1.53571   1.54634   1.55949   1.56472   1.60990
 Alpha virt. eigenvalues --    1.62102   1.65712   1.66381   1.66690   1.70521
 Alpha virt. eigenvalues --    1.72514   1.75847   1.76163   1.76277   1.78621
 Alpha virt. eigenvalues --    1.78945   1.79275   1.79853   1.83663   1.90353
 Alpha virt. eigenvalues --    1.90804   1.93140   1.96902   2.01115   2.02146
 Alpha virt. eigenvalues --    2.03036   2.07191   2.08043   2.10354   2.12664
 Alpha virt. eigenvalues --    2.15135   2.17301   2.19622   2.20970   2.25174
 Alpha virt. eigenvalues --    2.29534   2.32326   2.33539   2.37128   2.41031
 Alpha virt. eigenvalues --    2.42273   2.44358   2.45656   2.46028   2.48105
 Alpha virt. eigenvalues --    2.49016   2.50118   2.50551   2.51204   2.52490
 Alpha virt. eigenvalues --    2.53438   2.54490   2.54829   2.55267   2.56621
 Alpha virt. eigenvalues --    2.57831   2.58667   2.59474   2.60524   2.60971
 Alpha virt. eigenvalues --    2.62292   2.64296   2.65683   2.66739   2.67977
 Alpha virt. eigenvalues --    2.70653   2.73493   2.79900   2.80038   2.81876
 Alpha virt. eigenvalues --    2.83145   2.85368   2.85475   2.86432   2.98104
 Alpha virt. eigenvalues --    2.99016   3.00908   3.01385   3.01944   3.05670
 Alpha virt. eigenvalues --    3.10128   3.10726   3.13314   3.15265   3.17426
 Alpha virt. eigenvalues --    3.21252   3.26242   3.28636   3.30390   3.32722
 Alpha virt. eigenvalues --    3.34488   3.37001   3.37914   3.42687   3.45970
 Alpha virt. eigenvalues --    3.79398   3.80280   4.08279   4.08462   4.17989
 Alpha virt. eigenvalues --    4.18458  21.68027  21.69785  21.73329  21.77824
 Alpha virt. eigenvalues --   21.82580  21.85853  43.04805  43.05757  43.11368
 Alpha virt. eigenvalues --   43.16264
          Condensed to atoms (all electrons):
               1          2          3          4          5          6
     1  O    7.968968   0.612471  -0.111009  -0.111197  -0.011525  -0.001601
     2  C    0.612471   4.823080   0.315501   0.151333  -0.040220  -0.008060
     3  O   -0.111009   0.315501   7.914860  -0.138025   0.002371  -0.002789
     4  C   -0.111197   0.151333  -0.138025   5.485792   0.177444  -0.005141
     5  C   -0.011525  -0.040220   0.002371   0.177444   5.342958   0.125352
     6  C   -0.001601  -0.008060  -0.002789  -0.005141   0.125352   5.386357
     7  C    0.000001  -0.000127   0.000114   0.005186   0.019920   0.012631
     8  C   -0.000002  -0.000098  -0.000004   0.000811  -0.007668   0.055637
     9  O    0.000000   0.000001   0.000000   0.000160  -0.000382   0.035537
    10  O   -0.000000  -0.000000  -0.000000   0.000019  -0.000573   0.015995
    11  H    0.001997  -0.015877   0.283610   0.013909   0.000334   0.000149
    12  H    0.006922  -0.055108   0.005709   0.414243  -0.026402  -0.004749
    13  H    0.004004   0.004913   0.004047   0.360407  -0.031491  -0.017925
    14  H    0.000473  -0.010569   0.007722  -0.041359   0.415028  -0.031463
    15  H    0.004160   0.013794  -0.000486  -0.046134   0.409226  -0.047911
    16  H   -0.000013  -0.001187  -0.000026  -0.004720  -0.038161   0.414035
    17  H    0.000025   0.001016   0.000129  -0.005986  -0.034067   0.405683
    18  H   -0.000004  -0.000076   0.000006  -0.000283  -0.004910  -0.032106
    19  H    0.000001  -0.000033  -0.000026  -0.000216  -0.001824  -0.035397
    20  H   -0.000000   0.000000  -0.000000  -0.000004   0.000083  -0.001875
               7          8          9         10         11         12
     1  O    0.000001  -0.000002   0.000000  -0.000000   0.001997   0.006922
     2  C   -0.000127  -0.000098   0.000001  -0.000000  -0.015877  -0.055108
     3  O    0.000114  -0.000004   0.000000  -0.000000   0.283610   0.005709
     4  C    0.005186   0.000811   0.000160   0.000019   0.013909   0.414243
     5  C    0.019920  -0.007668  -0.000382  -0.000573   0.000334  -0.026402
     6  C    0.012631   0.055637   0.035537   0.015995   0.000149  -0.004749
     7  C    5.874796  -0.009898  -0.168062  -0.181810  -0.000007   0.000781
     8  C   -0.009898   4.830432   0.619913   0.361455   0.000000  -0.000126
     9  O   -0.168062   0.619913   7.968409  -0.105067  -0.000000  -0.000018
    10  O   -0.181810   0.361455  -0.105067   7.901517  -0.000000  -0.000000
    11  H   -0.000007   0.000000  -0.000000  -0.000000   0.386924  -0.000646
    12  H    0.000781  -0.000126  -0.000018  -0.000000  -0.000646   0.508646
    13  H    0.000640  -0.000256  -0.000022  -0.000000  -0.000406  -0.019069
    14  H   -0.006273   0.000509   0.000059  -0.000004  -0.000376   0.006167
    15  H   -0.007259  -0.000407   0.000045  -0.000005  -0.000178  -0.004099
    16  H   -0.029569  -0.008311   0.002835   0.000115   0.000001   0.002532
    17  H   -0.025387  -0.010659   0.003324   0.000188  -0.000005   0.000397
    18  H    0.380023  -0.008738   0.002103   0.005796  -0.000000   0.000152
    19  H    0.382010  -0.009820   0.001873   0.005302   0.000000  -0.000073
    20  H    0.020063  -0.017780   0.002252   0.283317   0.000000   0.000000
              13         14         15         16         17         18
     1  O    0.004004   0.000473   0.004160  -0.000013   0.000025  -0.000004
     2  C    0.004913  -0.010569   0.013794  -0.001187   0.001016  -0.000076
     3  O    0.004047   0.007722  -0.000486  -0.000026   0.000129   0.000006
     4  C    0.360407  -0.041359  -0.046134  -0.004720  -0.005986  -0.000283
     5  C   -0.031491   0.415028   0.409226  -0.038161  -0.034067  -0.004910
     6  C   -0.017925  -0.031463  -0.047911   0.414035   0.405683  -0.032106
     7  C    0.000640  -0.006273  -0.007259  -0.029569  -0.025387   0.380023
     8  C   -0.000256   0.000509  -0.000407  -0.008311  -0.010659  -0.008738
     9  O   -0.000022   0.000059   0.000045   0.002835   0.003324   0.002103
    10  O   -0.000000  -0.000004  -0.000005   0.000115   0.000188   0.005796
    11  H   -0.000406  -0.000376  -0.000178   0.000001  -0.000005  -0.000000
    12  H   -0.019069   0.006167  -0.004099   0.002532   0.000397   0.000152
    13  H    0.516803  -0.004122   0.007501   0.000396   0.003875  -0.000070
    14  H   -0.004122   0.532387  -0.027926   0.006204  -0.004882   0.000781
    15  H    0.007501  -0.027926   0.548768  -0.004459   0.006418   0.001692
    16  H    0.000396   0.006204  -0.004459   0.539144  -0.027879  -0.003069
    17  H    0.003875  -0.004882   0.006418  -0.027879   0.539820   0.005387
    18  H   -0.000070   0.000781   0.001692  -0.003069   0.005387   0.483695
    19  H    0.000154   0.001710   0.000939   0.005378  -0.002832  -0.014883
    20  H   -0.000000  -0.000000  -0.000001   0.000006  -0.000002  -0.000370
              19         20
     1  O    0.000001  -0.000000
     2  C   -0.000033   0.000000
     3  O   -0.000026  -0.000000
     4  C   -0.000216  -0.000004
     5  C   -0.001824   0.000083
     6  C   -0.035397  -0.001875
     7  C    0.382010   0.020063
     8  C   -0.009820  -0.017780
     9  O    0.001873   0.002252
    10  O    0.005302   0.283317
    11  H    0.000000   0.000000
    12  H   -0.000073   0.000000
    13  H    0.000154  -0.000000
    14  H    0.001710  -0.000000
    15  H    0.000939  -0.000001
    16  H    0.005378   0.000006
    17  H   -0.002832  -0.000002
    18  H   -0.014883  -0.000370
    19  H    0.481992  -0.000386
    20  H   -0.000386   0.383886
 Mulliken charges:
               1
     1  O   -0.363669
     2  C    0.209247
     3  O   -0.281704
     4  C   -0.256239
     5  C   -0.295493
     6  C   -0.262359
     7  C   -0.267774
     8  C    0.205009
     9  O   -0.362960
    10  O   -0.286244
    11  H    0.330568
    12  H    0.164741
    13  H    0.170622
    14  H    0.155934
    15  H    0.146321
    16  H    0.146748
    17  H    0.145436
    18  H    0.184873
    19  H    0.186132
    20  H    0.330812
 Sum of Mulliken charges =  -0.00000
 Mulliken charges with hydrogens summed into heavy atoms:
               1
     1  O   -0.363669
     2  C    0.209247
     3  O    0.048864
     4  C    0.079123
     5  C    0.006763
     6  C    0.029825
     7  C    0.103231
     8  C    0.205009
     9  O   -0.362960
    10  O    0.044568
 Electronic spatial extent (au):  <R**2>=           2814.1450
 Charge=             -0.0000 electrons
 Dipole moment (field-independent basis, Debye):
    X=             -1.1765    Y=             -2.8479    Z=             -1.0433  Tot=              3.2532
 Quadrupole moment (field-independent basis, Debye-Ang):
   XX=            -59.8850   YY=            -62.4003   ZZ=            -62.7443
   XY=              0.0495   XZ=            -10.6766   YZ=              0.6742
 Traceless Quadrupole moment (field-independent basis, Debye-Ang):
   XX=              1.7915   YY=             -0.7237   ZZ=             -1.0678
   XY=              0.0495   XZ=            -10.6766   YZ=              0.6742
 Octapole moment (field-independent basis, Debye-Ang**2):
  XXX=            -73.1861  YYY=             -8.1225  ZZZ=             -2.1120  XYY=             26.7342
  XXY=            -54.6387  XXZ=            -34.0426  XZZ=            -14.2301  YZZ=             -1.5328
  YYZ=             -0.1327  XYZ=            -10.8421
 Hexadecapole moment (field-independent basis, Debye-Ang**3):
 XXXX=          -2500.6524 YYYY=           -245.1417 ZZZZ=           -167.7923 XXXY=           -108.1384
 XXXZ=           -216.0717 YYYX=             -9.6849 YYYZ=              9.1783 ZZZX=            -12.7150
 ZZZY=             -3.1178 XXYY=           -576.0861 XXZZ=           -593.3080 YYZZ=            -67.4449
 XXYZ=             21.2464 YYXZ=             -9.9751 ZZXY=             -2.6590
 N-N= 5.068554645198D+02 E-N=-2.269122115905D+03  KE= 5.334876874103D+02
 Unable to Open any file for archive entry.
 1\1\GINC-TCN1632\SP\RBP86\TZVP\C6H10O4\ELENAA\22-Feb-2021\0\\# BP86/TZ
 VP SCRF=COSMORS geom=CHECKPOINT guess=CHECKPOINT\\COSMO-file for #WNLR
 TRBMVRJNCN-UHFFFAOYSA-N\\0,1\O,0,0.6901728863,0.7743125968,1.591616770
 5\C,0,0.9899851024,0.0008256119,2.4891205947\O,0,1.6561539894,0.401197
 624,3.6106741789\C,0,0.6532569294,-1.4704388663,2.5343974419\C,0,-0.50
 37042567,-1.7557286311,3.5169561168\C,0,-0.8731319702,-3.2435736995,3.
 5424596224\C,0,-2.0228070848,-3.526865535,4.5105776678\C,0,-2.41521855
 93,-4.9856722436,4.5701243033\O,0,-1.8931222472,-5.8966485981,3.946772
 1915\O,0,-3.4558127768,-5.1848089861,5.4299490951\H,0,1.8072318747,1.3
 681674926,3.5361734542\H,0,0.3765566447,-1.781131594,1.5178173687\H,0,
 1.5466183654,-2.0356785529,2.8429135557\H,0,-0.2126139441,-1.424521912
 ,4.5269580638\H,0,-1.383869676,-1.1582041479,3.2251666012\H,0,-1.15576
 17306,-3.5764012278,2.5305543414\H,0,0.0067101544,-3.8407122331,3.8323
 232603\H,0,-2.9234458333,-2.9500287143,4.2401711388\H,0,-1.7666999209,
 -3.2105889547,5.5361444282\H,0,-3.6613579467,-6.144509429,5.4269298047
 \\Version=ES64L-G16RevC.01\State=1-A\HF=-535.8256068\RMSD=2.725e-09\Di
 pole=-0.2569423,0.0838449,1.2510354\Quadrupole=6.3716716,-3.839415,-2.
 5322566,4.5624087,0.044707,3.5936582\PG=C01 [X(C6H10O4)]\\@
 The archive entry for this job was punched.


 WHEN IT COMES TO CASH FLOW, IT SEEMS LIKE THE TIDE IS ALWAYS GOING OUT.
 Job cpu time:       0 days  0 hours  5 minutes 32.8 seconds.
 Elapsed time:       0 days  0 hours  0 minutes 10.9 seconds.
 File lengths (MBytes):  RWF=     56 Int=      0 D2E=      0 Chk=      9 Scr=      1
 Normal termination of Gaussian 16 at Mon Feb 22 21:30:04 2021.
