 Entering Gaussian System, Link 0=g16
 Input=WQZGKKKJIJFFOK-MDMQIMBFSA-N.gjf
 Output=WQZGKKKJIJFFOK-MDMQIMBFSA-N.log
 Initial command:
 /sw/arch/RedHatEnterpriseServer7/EB_production/2019/software/Gaussian/g16.c01/l1.exe "/scratch-local/elenaa.9715293/Gau-26686.inp" -scrdir="/scratch-local/elenaa.9715293/"
 Entering Link 1 = /sw/arch/RedHatEnterpriseServer7/EB_production/2019/software/Gaussian/g16.c01/l1.exe PID=     26687.
  
 Copyright (c) 1988-2019, Gaussian, Inc.  All Rights Reserved.
  
 This is part of the Gaussian(R) 16 program.  It is based on
 the Gaussian(R) 09 system (copyright 2009, Gaussian, Inc.),
 the Gaussian(R) 03 system (copyright 2003, Gaussian, Inc.),
 the Gaussian(R) 98 system (copyright 1998, Gaussian, Inc.),
 the Gaussian(R) 94 system (copyright 1995, Gaussian, Inc.),
 the Gaussian 92(TM) system (copyright 1992, Gaussian, Inc.),
 the Gaussian 90(TM) system (copyright 1990, Gaussian, Inc.),
 the Gaussian 88(TM) system (copyright 1988, Gaussian, Inc.),
 the Gaussian 86(TM) system (copyright 1986, Carnegie Mellon
 University), and the Gaussian 82(TM) system (copyright 1983,
 Carnegie Mellon University). Gaussian is a federally registered
 trademark of Gaussian, Inc.
  
 This software contains proprietary and confidential information,
 including trade secrets, belonging to Gaussian, Inc.
  
 This software is provided under written license and may be
 used, copied, transmitted, or stored only in accord with that
 written license.
  
 The following legend is applicable only to US Government
 contracts under FAR:
  
                    RESTRICTED RIGHTS LEGEND
  
 Use, reproduction and disclosure by the US Government is
 subject to restrictions as set forth in subparagraphs (a)
 and (c) of the Commercial Computer Software - Restricted
 Rights clause in FAR 52.227-19.
  
 Gaussian, Inc.
 340 Quinnipiac St., Bldg. 40, Wallingford CT 06492
  
  
 ---------------------------------------------------------------
 Warning -- This program may not be used in any manner that
 competes with the business of Gaussian, Inc. or will provide
 assistance to any competitor of Gaussian, Inc.  The licensee
 of this program is prohibited from giving any competitor of
 Gaussian, Inc. access to this program.  By using this program,
 the user acknowledges that Gaussian, Inc. is engaged in the
 business of creating and licensing software in the field of
 computational chemistry and represents and warrants to the
 licensee that it is not a competitor of Gaussian, Inc. and that
 it will not use this program in any manner prohibited above.
 ---------------------------------------------------------------
  

 Cite this work as:
 Gaussian 16, Revision C.01,
 M. J. Frisch, G. W. Trucks, H. B. Schlegel, G. E. Scuseria, 
 M. A. Robb, J. R. Cheeseman, G. Scalmani, V. Barone, 
 G. A. Petersson, H. Nakatsuji, X. Li, M. Caricato, A. V. Marenich, 
 J. Bloino, B. G. Janesko, R. Gomperts, B. Mennucci, H. P. Hratchian, 
 J. V. Ortiz, A. F. Izmaylov, J. L. Sonnenberg, D. Williams-Young, 
 F. Ding, F. Lipparini, F. Egidi, J. Goings, B. Peng, A. Petrone, 
 T. Henderson, D. Ranasinghe, V. G. Zakrzewski, J. Gao, N. Rega, 
 G. Zheng, W. Liang, M. Hada, M. Ehara, K. Toyota, R. Fukuda, 
 J. Hasegawa, M. Ishida, T. Nakajima, Y. Honda, O. Kitao, H. Nakai, 
 T. Vreven, K. Throssell, J. A. Montgomery, Jr., J. E. Peralta, 
 F. Ogliaro, M. J. Bearpark, J. J. Heyd, E. N. Brothers, K. N. Kudin, 
 V. N. Staroverov, T. A. Keith, R. Kobayashi, J. Normand, 
 K. Raghavachari, A. P. Rendell, J. C. Burant, S. S. Iyengar, 
 J. Tomasi, M. Cossi, J. M. Millam, M. Klene, C. Adamo, R. Cammi, 
 J. W. Ochterski, R. L. Martin, K. Morokuma, O. Farkas, 
 J. B. Foresman, and D. J. Fox, Gaussian, Inc., Wallingford CT, 2019.
 
 ******************************************
 Gaussian 16:  ES64L-G16RevC.01  3-Jul-2019
                22-Feb-2021 
 ******************************************
 %chk=WQZGKKKJIJFFOK-MDMQIMBFSA-N.chk
 %NProcShared=32
 Will use up to   32 processors via shared memory.
 -------------------------------------------------------------
 #P BP86/TZVP EmpiricalDispersion=GD3 SCRF=(Solvent=Water) Opt
 -------------------------------------------------------------
 1/18=20,19=15,26=3,38=1/1,3;
 2/9=110,12=2,17=6,18=5,40=1/2;
 3/5=19,7=101,11=2,25=1,30=1,70=2201,71=1,72=1,74=404,124=31/1,2,3;
 4//1;
 5/5=2,38=5,53=1/2;
 6/7=2,8=2,9=2,10=2,28=1/1;
 7//1,2,3,16;
 1/18=20,19=15,26=3/3(2);
 2/9=110/2;
 99//99;
 2/9=110/2;
 3/5=19,7=101,11=2,25=1,30=1,70=2205,71=1,72=1,74=404,124=31/1,2,3;
 4/5=5,16=3,69=1/1;
 5/5=2,38=5,53=1/2;
 7//1,2,3,16;
 1/18=20,19=15,26=3/3(-5);
 2/9=110/2;
 6/7=2,8=2,9=2,10=2,19=2,28=1/1;
 99/9=1/99;
 Leave Link    1 at Mon Feb 22 21:25:04 2021, MaxMem=           0 cpu:               1.5 elap:               0.1
 (Enter /sw/arch/RedHatEnterpriseServer7/EB_production/2019/software/Gaussian/g16.c01/l101.exe)
 -------------------------------------
 Particle #WQZGKKKJIJFFOK-MDMQIMBFSA-N
 -------------------------------------
 Symbolic Z-matrix:
 Charge =  0 Multiplicity = 1
 O                     2.18409   0.97362  -3.94269 
 C                     0.88047   0.61908  -4.38842 
 C                    -0.18836   1.56218  -3.76853 
 O                    -0.10523   1.65696  -2.32607 
 C                    -0.9862    2.61481  -1.70195 
 O                    -0.60841   3.90959  -2.15673 
 C                    -2.47553   2.3497   -2.04486 
 O                    -3.28914   3.39802  -1.51672 
 C                    -2.68183   2.2419   -3.58181 
 O                    -4.01469   1.82428  -3.87422 
 C                    -1.65056   1.27363  -4.22821 
 O                    -1.70362   1.40679  -5.6517 
 H                     2.78439   0.342    -4.39372 
 H                     0.86027   0.6987   -5.4764 
 H                     0.70087  -0.42126  -4.11756 
 H                     0.07156   2.56306  -4.12537 
 H                    -0.84576   2.60605  -0.61815 
 H                     0.33863   3.99027  -1.92207 
 H                    -2.79318   1.41807  -1.56786 
 H                    -3.15881   3.35225  -0.54586 
 H                    -2.57151   3.23412  -4.02988 
 H                    -4.59404   2.50329  -3.46907 
 H                    -1.92103   0.23961  -3.99658 
 H                    -2.62809   1.19655  -5.89765 
 
 ITRead=  0  0  0  0  0  0  0  0  0  0  0  0  0  0  0  0  0  0  0  0
 ITRead=  0  0  0  0
 MicOpt= -1 -1 -1 -1 -1 -1 -1 -1 -1 -1 -1 -1 -1 -1 -1 -1 -1 -1 -1 -1
 MicOpt= -1 -1 -1 -1
 NAtoms=     24 NQM=       24 NQMF=       0 NMMI=      0 NMMIF=      0
                NMic=       0 NMicF=      0.
                    Isotopes and Nuclear Properties:
 (Nuclear quadrupole moments (NQMom) in fm**2, nuclear magnetic moments (NMagM)
  in nuclear magnetons)

  Atom         1           2           3           4           5           6           7           8           9          10
 IAtWgt=          16          12          12          16          12          16          12          16          12          16
 AtmWgt=  15.9949146  12.0000000  12.0000000  15.9949146  12.0000000  15.9949146  12.0000000  15.9949146  12.0000000  15.9949146
 NucSpn=           0           0           0           0           0           0           0           0           0           0
 AtZEff=  -0.0000000  -0.0000000  -0.0000000  -0.0000000  -0.0000000  -0.0000000  -0.0000000  -0.0000000  -0.0000000  -0.0000000
 NQMom=    0.0000000   0.0000000   0.0000000   0.0000000   0.0000000   0.0000000   0.0000000   0.0000000   0.0000000   0.0000000
 NMagM=    0.0000000   0.0000000   0.0000000   0.0000000   0.0000000   0.0000000   0.0000000   0.0000000   0.0000000   0.0000000
 AtZNuc=   8.0000000   6.0000000   6.0000000   8.0000000   6.0000000   8.0000000   6.0000000   8.0000000   6.0000000   8.0000000

  Atom        11          12          13          14          15          16          17          18          19          20
 IAtWgt=          12          16           1           1           1           1           1           1           1           1
 AtmWgt=  12.0000000  15.9949146   1.0078250   1.0078250   1.0078250   1.0078250   1.0078250   1.0078250   1.0078250   1.0078250
 NucSpn=           0           0           1           1           1           1           1           1           1           1
 AtZEff=  -0.0000000  -0.0000000  -0.0000000  -0.0000000  -0.0000000  -0.0000000  -0.0000000  -0.0000000  -0.0000000  -0.0000000
 NQMom=    0.0000000   0.0000000   0.0000000   0.0000000   0.0000000   0.0000000   0.0000000   0.0000000   0.0000000   0.0000000
 NMagM=    0.0000000   0.0000000   2.7928460   2.7928460   2.7928460   2.7928460   2.7928460   2.7928460   2.7928460   2.7928460
 AtZNuc=   6.0000000   8.0000000   1.0000000   1.0000000   1.0000000   1.0000000   1.0000000   1.0000000   1.0000000   1.0000000

  Atom        21          22          23          24
 IAtWgt=           1           1           1           1
 AtmWgt=   1.0078250   1.0078250   1.0078250   1.0078250
 NucSpn=           1           1           1           1
 AtZEff=  -0.0000000  -0.0000000  -0.0000000  -0.0000000
 NQMom=    0.0000000   0.0000000   0.0000000   0.0000000
 NMagM=    2.7928460   2.7928460   2.7928460   2.7928460
 AtZNuc=   1.0000000   1.0000000   1.0000000   1.0000000
 Leave Link  101 at Mon Feb 22 21:25:04 2021, MaxMem=   104857600 cpu:               2.5 elap:               0.1
 (Enter /sw/arch/RedHatEnterpriseServer7/EB_production/2019/software/Gaussian/g16.c01/l103.exe)

 GradGradGradGradGradGradGradGradGradGradGradGradGradGradGradGradGradGrad
 Berny optimization.
 Initialization pass.
                           ----------------------------
                           !    Initial Parameters    !
                           ! (Angstroms and Degrees)  !
 --------------------------                            --------------------------
 ! Name  Definition              Value          Derivative Info.                !
 --------------------------------------------------------------------------------
 ! R1    R(1,2)                  1.4226         estimate D2E/DX2                !
 ! R2    R(1,13)                 0.9812         estimate D2E/DX2                !
 ! R3    R(2,3)                  1.5544         estimate D2E/DX2                !
 ! R4    R(2,14)                 1.0911         estimate D2E/DX2                !
 ! R5    R(2,15)                 1.0899         estimate D2E/DX2                !
 ! R6    R(3,4)                  1.448          estimate D2E/DX2                !
 ! R7    R(3,11)                 1.5597         estimate D2E/DX2                !
 ! R8    R(3,16)                 1.0939         estimate D2E/DX2                !
 ! R9    R(4,5)                  1.4433         estimate D2E/DX2                !
 ! R10   R(5,6)                  1.4234         estimate D2E/DX2                !
 ! R11   R(5,7)                  1.5511         estimate D2E/DX2                !
 ! R12   R(5,17)                 1.0929         estimate D2E/DX2                !
 ! R13   R(6,18)                 0.979          estimate D2E/DX2                !
 ! R14   R(7,8)                  1.4282         estimate D2E/DX2                !
 ! R15   R(7,9)                  1.5545         estimate D2E/DX2                !
 ! R16   R(7,19)                 1.0938         estimate D2E/DX2                !
 ! R17   R(8,20)                 0.9806         estimate D2E/DX2                !
 ! R18   R(9,10)                 1.427          estimate D2E/DX2                !
 ! R19   R(9,11)                 1.5553         estimate D2E/DX2                !
 ! R20   R(9,21)                 1.0943         estimate D2E/DX2                !
 ! R21   R(10,22)                0.9802         estimate D2E/DX2                !
 ! R22   R(11,12)                1.4307         estimate D2E/DX2                !
 ! R23   R(11,23)                1.0936         estimate D2E/DX2                !
 ! R24   R(12,24)                0.9795         estimate D2E/DX2                !
 ! A1    A(2,1,13)             104.8438         estimate D2E/DX2                !
 ! A2    A(1,2,3)              110.7291         estimate D2E/DX2                !
 ! A3    A(1,2,14)             108.132          estimate D2E/DX2                !
 ! A4    A(1,2,15)             108.1209         estimate D2E/DX2                !
 ! A5    A(3,2,14)             109.9172         estimate D2E/DX2                !
 ! A6    A(3,2,15)             111.5132         estimate D2E/DX2                !
 ! A7    A(14,2,15)            108.3256         estimate D2E/DX2                !
 ! A8    A(2,3,4)              113.4235         estimate D2E/DX2                !
 ! A9    A(2,3,11)             114.511          estimate D2E/DX2                !
 ! A10   A(2,3,16)             105.1688         estimate D2E/DX2                !
 ! A11   A(4,3,11)             111.0721         estimate D2E/DX2                !
 ! A12   A(4,3,16)             104.5617         estimate D2E/DX2                !
 ! A13   A(11,3,16)            107.2107         estimate D2E/DX2                !
 ! A14   A(3,4,5)              116.0517         estimate D2E/DX2                !
 ! A15   A(4,5,6)              107.6693         estimate D2E/DX2                !
 ! A16   A(4,5,7)              112.1508         estimate D2E/DX2                !
 ! A17   A(4,5,17)             110.1861         estimate D2E/DX2                !
 ! A18   A(6,5,7)              109.8576         estimate D2E/DX2                !
 ! A19   A(6,5,17)             106.8599         estimate D2E/DX2                !
 ! A20   A(7,5,17)             109.9528         estimate D2E/DX2                !
 ! A21   A(5,6,18)             104.7814         estimate D2E/DX2                !
 ! A22   A(5,7,8)              109.8626         estimate D2E/DX2                !
 ! A23   A(5,7,9)              110.9689         estimate D2E/DX2                !
 ! A24   A(5,7,19)             109.1484         estimate D2E/DX2                !
 ! A25   A(8,7,9)              109.9326         estimate D2E/DX2                !
 ! A26   A(8,7,19)             107.3663         estimate D2E/DX2                !
 ! A27   A(9,7,19)             109.4855         estimate D2E/DX2                !
 ! A28   A(7,8,20)             104.841          estimate D2E/DX2                !
 ! A29   A(7,9,10)             110.2947         estimate D2E/DX2                !
 ! A30   A(7,9,11)             111.4756         estimate D2E/DX2                !
 ! A31   A(7,9,21)             109.1832         estimate D2E/DX2                !
 ! A32   A(10,9,11)            110.6076         estimate D2E/DX2                !
 ! A33   A(10,9,21)            105.9989         estimate D2E/DX2                !
 ! A34   A(11,9,21)            109.1151         estimate D2E/DX2                !
 ! A35   A(9,10,22)            105.3445         estimate D2E/DX2                !
 ! A36   A(3,11,9)             112.5798         estimate D2E/DX2                !
 ! A37   A(3,11,12)            108.107          estimate D2E/DX2                !
 ! A38   A(3,11,23)            110.1426         estimate D2E/DX2                !
 ! A39   A(9,11,12)            109.3288         estimate D2E/DX2                !
 ! A40   A(9,11,23)            109.6708         estimate D2E/DX2                !
 ! A41   A(12,11,23)           106.832          estimate D2E/DX2                !
 ! A42   A(11,12,24)           105.359          estimate D2E/DX2                !
 ! D1    D(13,1,2,3)          -178.9916         estimate D2E/DX2                !
 ! D2    D(13,1,2,14)          -58.5139         estimate D2E/DX2                !
 ! D3    D(13,1,2,15)           58.5689         estimate D2E/DX2                !
 ! D4    D(1,2,3,4)            -52.5566         estimate D2E/DX2                !
 ! D5    D(1,2,3,11)           178.5279         estimate D2E/DX2                !
 ! D6    D(1,2,3,16)            61.1056         estimate D2E/DX2                !
 ! D7    D(14,2,3,4)          -171.9657         estimate D2E/DX2                !
 ! D8    D(14,2,3,11)           59.1188         estimate D2E/DX2                !
 ! D9    D(14,2,3,16)          -58.3035         estimate D2E/DX2                !
 ! D10   D(15,2,3,4)            67.8829         estimate D2E/DX2                !
 ! D11   D(15,2,3,11)          -61.0326         estimate D2E/DX2                !
 ! D12   D(15,2,3,16)         -178.4548         estimate D2E/DX2                !
 ! D13   D(2,3,4,5)            174.2719         estimate D2E/DX2                !
 ! D14   D(11,3,4,5)           -55.0768         estimate D2E/DX2                !
 ! D15   D(16,3,4,5)            60.2451         estimate D2E/DX2                !
 ! D16   D(2,3,11,9)           180.0            estimate D2E/DX2                !
 ! D17   D(2,3,11,12)          -59.1281         estimate D2E/DX2                !
 ! D18   D(2,3,11,23)           57.2591         estimate D2E/DX2                !
 ! D19   D(4,3,11,9)            49.9175         estimate D2E/DX2                !
 ! D20   D(4,3,11,12)          170.7894         estimate D2E/DX2                !
 ! D21   D(4,3,11,23)          -72.8234         estimate D2E/DX2                !
 ! D22   D(16,3,11,9)          -63.7496         estimate D2E/DX2                !
 ! D23   D(16,3,11,12)          57.1223         estimate D2E/DX2                !
 ! D24   D(16,3,11,23)         173.5096         estimate D2E/DX2                !
 ! D25   D(3,4,5,6)            -63.8839         estimate D2E/DX2                !
 ! D26   D(3,4,5,7)             57.0861         estimate D2E/DX2                !
 ! D27   D(3,4,5,17)           179.921          estimate D2E/DX2                !
 ! D28   D(4,5,6,18)           -56.4211         estimate D2E/DX2                !
 ! D29   D(7,5,6,18)          -178.8177         estimate D2E/DX2                !
 ! D30   D(17,5,6,18)           61.9358         estimate D2E/DX2                !
 ! D31   D(4,5,7,8)           -174.1943         estimate D2E/DX2                !
 ! D32   D(4,5,7,9)            -52.416          estimate D2E/DX2                !
 ! D33   D(4,5,7,19)            68.3291         estimate D2E/DX2                !
 ! D34   D(6,5,7,8)            -54.4948         estimate D2E/DX2                !
 ! D35   D(6,5,7,9)             67.2836         estimate D2E/DX2                !
 ! D36   D(6,5,7,19)          -171.9713         estimate D2E/DX2                !
 ! D37   D(17,5,7,8)            62.8391         estimate D2E/DX2                !
 ! D38   D(17,5,7,9)          -175.3826         estimate D2E/DX2                !
 ! D39   D(17,5,7,19)          -54.6375         estimate D2E/DX2                !
 ! D40   D(5,7,8,20)           -62.092          estimate D2E/DX2                !
 ! D41   D(9,7,8,20)           175.5133         estimate D2E/DX2                !
 ! D42   D(19,7,8,20)           56.489          estimate D2E/DX2                !
 ! D43   D(5,7,9,10)           172.3411         estimate D2E/DX2                !
 ! D44   D(5,7,9,11)            49.06           estimate D2E/DX2                !
 ! D45   D(5,7,9,21)           -71.5679         estimate D2E/DX2                !
 ! D46   D(8,7,9,10)           -65.9214         estimate D2E/DX2                !
 ! D47   D(8,7,9,11)           170.7974         estimate D2E/DX2                !
 ! D48   D(8,7,9,21)            50.1695         estimate D2E/DX2                !
 ! D49   D(19,7,9,10)           51.7954         estimate D2E/DX2                !
 ! D50   D(19,7,9,11)          -71.4857         estimate D2E/DX2                !
 ! D51   D(19,7,9,21)          167.8864         estimate D2E/DX2                !
 ! D52   D(7,9,10,22)           58.6896         estimate D2E/DX2                !
 ! D53   D(11,9,10,22)        -177.5254         estimate D2E/DX2                !
 ! D54   D(21,9,10,22)         -59.3764         estimate D2E/DX2                !
 ! D55   D(7,9,11,3)           -48.511          estimate D2E/DX2                !
 ! D56   D(7,9,11,12)         -168.6807         estimate D2E/DX2                !
 ! D57   D(7,9,11,23)           74.4942         estimate D2E/DX2                !
 ! D58   D(10,9,11,3)         -171.6138         estimate D2E/DX2                !
 ! D59   D(10,9,11,12)          68.2165         estimate D2E/DX2                !
 ! D60   D(10,9,11,23)         -48.6085         estimate D2E/DX2                !
 ! D61   D(21,9,11,3)           72.1568         estimate D2E/DX2                !
 ! D62   D(21,9,11,12)         -48.0128         estimate D2E/DX2                !
 ! D63   D(21,9,11,23)        -164.8379         estimate D2E/DX2                !
 ! D64   D(3,11,12,24)         178.632          estimate D2E/DX2                !
 ! D65   D(9,11,12,24)         -58.4935         estimate D2E/DX2                !
 ! D66   D(23,11,12,24)         60.1138         estimate D2E/DX2                !
 --------------------------------------------------------------------------------
 Trust Radius=3.00D-01 FncErr=1.00D-07 GrdErr=1.00D-06 EigMax=2.50D+02 EigMin=1.00D-04
 Number of steps in this run=    142 maximum allowed number of steps=    144.
 GradGradGradGradGradGradGradGradGradGradGradGradGradGradGradGradGradGrad

 Leave Link  103 at Mon Feb 22 21:25:05 2021, MaxMem=   104857600 cpu:               0.5 elap:               0.0
 (Enter /sw/arch/RedHatEnterpriseServer7/EB_production/2019/software/Gaussian/g16.c01/l202.exe)
                          Input orientation:                          
 ---------------------------------------------------------------------
 Center     Atomic      Atomic             Coordinates (Angstroms)
 Number     Number       Type             X           Y           Z
 ---------------------------------------------------------------------
      1          8           0        2.184088    0.973620   -3.942693
      2          6           0        0.880469    0.619076   -4.388423
      3          6           0       -0.188364    1.562175   -3.768534
      4          8           0       -0.105230    1.656960   -2.326070
      5          6           0       -0.986200    2.614810   -1.701950
      6          8           0       -0.608410    3.909590   -2.156730
      7          6           0       -2.475530    2.349700   -2.044860
      8          8           0       -3.289135    3.398016   -1.516724
      9          6           0       -2.681833    2.241897   -3.581807
     10          8           0       -4.014688    1.824281   -3.874215
     11          6           0       -1.650558    1.273634   -4.228208
     12          8           0       -1.703619    1.406795   -5.651704
     13          1           0        2.784394    0.341995   -4.393723
     14          1           0        0.860270    0.698700   -5.476400
     15          1           0        0.700866   -0.421256   -4.117562
     16          1           0        0.071556    2.563056   -4.125366
     17          1           0       -0.845760    2.606050   -0.618150
     18          1           0        0.338630    3.990270   -1.922070
     19          1           0       -2.793184    1.418070   -1.567864
     20          1           0       -3.158809    3.352254   -0.545858
     21          1           0       -2.571506    3.234124   -4.029883
     22          1           0       -4.594039    2.503295   -3.469073
     23          1           0       -1.921032    0.239608   -3.996575
     24          1           0       -2.628095    1.196553   -5.897648
 ---------------------------------------------------------------------
                    Distance matrix (angstroms):
                    1          2          3          4          5
     1  O    0.000000
     2  C    1.422603   0.000000
     3  C    2.450562   1.554381   0.000000
     4  O    2.884683   2.510399   1.447964   0.000000
     5  C    4.214873   3.832041   2.452622   1.443298   0.000000
     6  O    4.428050   4.245550   2.878317   2.314348   1.423378
     7  C    5.216071   4.444105   2.970248   2.485415   1.551120
     8  O    6.459039   5.775358   4.249205   3.718006   2.439515
     9  C    5.041423   3.996770   2.591192   2.925390   2.558925
    10  O    6.257246   5.067493   3.836746   4.208160   3.809910
    11  C    3.856946   2.619200   1.559668   2.480545   2.936342
    12  O    4.268796   2.982263   2.422079   3.698279   4.192201
    13  H    0.981196   1.923989   3.273682   3.788700   5.160301
    14  H    2.044586   1.091074   2.182207   3.431477   4.618160
    15  H    2.043576   1.089915   2.201488   2.859758   4.230729
    16  H    2.649993   2.121932   1.093915   2.022308   2.644706
    17  H    4.785122   4.598139   3.383307   2.089533   1.092896
    18  H    4.072936   4.212058   3.095610   2.409266   1.922373
    19  H    5.532683   4.699965   3.413034   2.803042   2.171487
    20  H    6.763352   6.208972   4.734297   3.920143   2.569164
    21  H    5.266227   4.345475   2.922855   3.387173   2.883750
    22  H    6.964712   5.862228   4.515014   4.708731   4.018913
    23  H    4.170574   2.854111   2.191649   2.845455   3.432317
    24  H    5.198908   3.862805   3.258694   4.396930   4.723468
                    6          7          8          9         10
     6  O    0.000000
     7  C    2.435551   0.000000
     8  O    2.803142   1.428232   0.000000
     9  C    3.018464   1.554473   2.443357   0.000000
    10  O    4.347528   2.447777   2.925890   1.427028   0.000000
    11  C    3.510749   2.570118   3.814457   1.555280   2.453087
    12  O    4.436024   3.807130   4.855603   2.436959   2.945301
    13  H    5.407679   6.100396   7.382692   5.843669   6.978150
    14  H    4.846344   5.062493   6.338999   4.303189   5.253489
    15  H    4.931054   4.697210   6.105024   4.338441   5.228586
    16  H    2.480128   3.295705   4.335484   2.824845   4.160079
    17  H    2.030463   2.181139   2.721163   3.505286   4.610339
    18  H    0.979009   3.259761   3.698074   3.864547   5.239633
    19  H    3.365661   1.093784   2.041756   2.178774   2.641275
    20  H    3.067584   1.928469   0.980643   3.267627   3.761010
    21  H    2.796194   2.175255   2.618744   1.094285   2.023529
    22  H    4.425511   2.557353   2.512959   1.933280   0.980229
    23  H    4.310079   2.927311   4.242277   2.181746   2.628603
    24  H    5.043230   4.024550   4.947314   2.541408   2.531988
                   11         12         13         14         15
    11  C    0.000000
    12  O    1.430695   0.000000
    13  H    4.534770   4.781065   0.000000
    14  H    2.862305   2.665644   2.236444   0.000000
    15  H    2.900705   3.387759   2.236047   1.768093   0.000000
    16  H    2.153802   2.611110   3.516336   2.433760   3.049953
    17  H    3.931355   5.245074   5.706042   5.491003   4.878782
    18  H    4.081085   4.975469   5.039914   4.872351   4.940948
    19  H    2.898945   4.226704   6.344509   5.398321   4.700263
    20  H    4.489453   5.654383   7.693464   6.892358   6.472522
    21  H    2.175087   2.592810   6.097742   4.505316   4.906925
    22  H    3.279091   3.784272   7.743867   6.085673   6.083548
    23  H    1.093627   2.036920   4.723266   3.183754   2.706609
    24  H    1.936118   0.979462   5.682174   3.548802   4.107067
                   16         17         18         19         20
    16  H    0.000000
    17  H    3.625449   0.000000
    18  H    2.638708   2.240324   0.000000
    19  H    4.007312   2.470974   4.068161   0.000000
    20  H    4.885793   2.431511   3.812231   2.217937   0.000000
    21  H    2.728594   3.874609   3.671991   3.067365   3.535154
    22  H    4.711907   4.710405   5.379176   2.834675   3.365383
    23  H    3.063561   4.262630   4.845319   2.836911   4.809170
    24  H    3.506627   5.747739   5.693113   4.338589   5.793994
                   21         22         23         24
    21  H    0.000000
    22  H    2.222445   0.000000
    23  H    3.064532   3.542246   0.000000
    24  H    2.764678   3.386811   2.242713   0.000000
 Stoichiometry    C6H12O6
 Framework group  C1[X(C6H12O6)]
 Deg. of freedom    66
 Full point group                 C1      NOp   1
 Largest Abelian subgroup         C1      NOp   1
 Largest concise Abelian subgroup C1      NOp   1
                         Standard orientation:                         
 ---------------------------------------------------------------------
 Center     Atomic      Atomic             Coordinates (Angstroms)
 Number     Number       Type             X           Y           Z
 ---------------------------------------------------------------------
      1          8           0        3.535168   -0.734734   -0.014098
      2          6           0        2.700146    0.387067   -0.275057
      3          6           0        1.215883    0.054376    0.044915
      4          8           0        0.742493   -1.149171   -0.606218
      5          6           0       -0.586923   -1.582452   -0.248402
      6          8           0       -0.574117   -1.918729    1.134623
      7          6           0       -1.650898   -0.485484   -0.514091
      8          8           0       -2.921433   -0.912098   -0.020542
      9          6           0       -1.245362    0.856907    0.156666
     10          8           0       -2.136738    1.897983   -0.240851
     11          6           0        0.225145    1.238446   -0.176402
     12          8           0        0.634385    2.323240    0.661829
     13          1           0        4.442458   -0.427648   -0.226862
     14          1           0        3.038551    1.214938    0.349888
     15          1           0        2.830013    0.670684   -1.319380
     16          1           0        1.200001   -0.185804    1.112019
     17          1           0       -0.846237   -2.493392   -0.793716
     18          1           0        0.128705   -2.594802    1.220796
     19          1           0       -1.752549   -0.338106   -1.593124
     20          1           0       -3.135974   -1.715465   -0.540383
     21          1           0       -1.354589    0.764205    1.241532
     22          1           0       -3.027078    1.597942    0.038648
     23          1           0        0.288351    1.594476   -1.208520
     24          1           0        0.002346    3.047887    0.475391
 ---------------------------------------------------------------------
 Rotational constants (GHZ):           1.2878199           0.7155240           0.5073753
 Leave Link  202 at Mon Feb 22 21:25:05 2021, MaxMem=   104857600 cpu:               0.5 elap:               0.0
 (Enter /sw/arch/RedHatEnterpriseServer7/EB_production/2019/software/Gaussian/g16.c01/l301.exe)
 Standard basis: TZVP (5D, 7F)
 Ernie: Thresh=  0.10000D-02 Tol=  0.10000D-05 Strict=F.
 There are   312 symmetry adapted cartesian basis functions of A   symmetry.
 There are   300 symmetry adapted basis functions of A   symmetry.
   300 basis functions,   516 primitive gaussians,   312 cartesian basis functions
    48 alpha electrons       48 beta electrons
       nuclear repulsion energy       818.1224241160 Hartrees.
 IExCor=  404 DFT=T Ex=B Corr=P86 ExCW=0 ScaHFX=  0.000000
 ScaDFX=  1.000000  1.000000  1.000000  1.000000 ScalE2=  1.000000  1.000000
 IRadAn=      5 IRanWt=     -1 IRanGd=            0 ICorTp=0 IEmpDi=131
 NAtoms=   24 NActive=   24 NUniq=   24 SFac= 1.00D+00 NAtFMM=   60 NAOKFM=F Big=F
 Integral buffers will be    131072 words long.
 Raffenetti 2 integral format.
 Two-electron integral symmetry is turned on.
 R6Disp:  Grimme-D3 Dispersion energy=       -0.0283338036 Hartrees.
 Nuclear repulsion after empirical dispersion term =      818.0940903124 Hartrees.
 ------------------------------------------------------------------------------
 Polarizable Continuum Model (PCM)
 =================================
 Model                : PCM.
 Atomic radii         : UFF (Universal Force Field).
 Polarization charges : Total charges.
 Charge compensation  : None.
 Solution method      : On-the-fly selection.
 Cavity type          : Scaled VdW (van der Waals Surface) (Alpha=1.100).
 Cavity algorithm     : GePol (No added spheres)
                        Default sphere list used, NSphG=   24.
                        Lebedev-Laikov grids with approx.  5.0 points / Ang**2.
                        Smoothing algorithm: York/Karplus (Gamma=1.0000).
                        Polarization charges: spherical gaussians, with
                                              point-specific exponents (IZeta= 3).
                        Self-potential: point-specific (ISelfS= 7).
                        Self-field    : sphere-specific E.n sum rule (ISelfD= 2).
 1st derivatives      : Analytical E(r).r(x)/FMM algorithm (CHGder, D1EAlg=3).
                        Cavity 1st derivative terms included.
 Solvent              : Water, Eps=  78.355300 Eps(inf)=   1.777849
 ------------------------------------------------------------------------------
 GePol: Number of generator spheres                  =      24
 GePol: Total number of spheres                      =      24
 GePol: Number of exposed spheres                    =      24 (100.00%)
 GePol: Number of points                             =    1758
 GePol: Average weight of points                     =       0.13
 GePol: Minimum weight of points                     =   0.13D-11
 GePol: Maximum weight of points                     =    0.20523
 GePol: Number of points with low weight             =     112
 GePol: Fraction of low-weight points (<1% of avg)   =       6.37%
 GePol: Cavity surface area                          =    232.439 Ang**2
 GePol: Cavity volume                                =    237.919 Ang**3
 Leave Link  301 at Mon Feb 22 21:25:05 2021, MaxMem=   104857600 cpu:               1.8 elap:               0.1
 (Enter /sw/arch/RedHatEnterpriseServer7/EB_production/2019/software/Gaussian/g16.c01/l302.exe)
 NPDir=0 NMtPBC=     1 NCelOv=     1 NCel=       1 NClECP=     1 NCelD=      1
         NCelK=      1 NCelE2=     1 NClLst=     1 CellRange=     0.0.
 One-electron integrals computed using PRISM.
 One-electron integral symmetry used in STVInt
 PrsmSu:  requested number of processors reduced to:  28 ShMem   1 Linda.
 NBasis=   300 RedAO= T EigKep=  6.89D-05  NBF=   300
 NBsUse=   300 1.00D-06 EigRej= -1.00D+00 NBFU=   300
 Precomputing XC quadrature grid using
 IXCGrd= 4 IRadAn=           5 IRanWt=          -1 IRanGd=           0 AccXCQ= 0.00D+00.
 Generated NRdTot=       0 NPtTot=           0 NUsed=           0 NTot=          32
 NSgBfM=   308   308   308   308   308 MxSgAt=    24 MxSgA2=    24.
 Leave Link  302 at Mon Feb 22 21:25:05 2021, MaxMem=   104857600 cpu:               8.4 elap:               0.3
 (Enter /sw/arch/RedHatEnterpriseServer7/EB_production/2019/software/Gaussian/g16.c01/l303.exe)
 DipDrv:  MaxL=1.
 Leave Link  303 at Mon Feb 22 21:25:06 2021, MaxMem=   104857600 cpu:               3.7 elap:               0.2
 (Enter /sw/arch/RedHatEnterpriseServer7/EB_production/2019/software/Gaussian/g16.c01/l401.exe)
 ExpMin= 9.52D-02 ExpMax= 2.70D+04 ExpMxC= 9.22D+02 IAcc=3 IRadAn=         5 AccDes= 0.00D+00
 Harris functional with IExCor=  404 and IRadAn=       5 diagonalized for initial guess.
 HarFok:  IExCor=  404 AccDes= 0.00D+00 IRadAn=         5 IDoV= 1 UseB2=F ITyADJ=14
 ICtDFT=  3500011 ScaDFX=  1.000000  1.000000  1.000000  1.000000
 FoFCou: FMM=F IPFlag=           0 FMFlag=      100000 FMFlg1=           0
         NFxFlg=           0 DoJE=T BraDBF=F KetDBF=T FulRan=T
         wScrn=  0.000000 ICntrl=       500 IOpCl=  0 I1Cent=   200000004 NGrid=           0
         NMat0=    1 NMatS0=      1 NMatT0=    0 NMatD0=    1 NMtDS0=    0 NMtDT0=    0
 Petite list used in FoFCou.
 Harris En= -687.612044648781    
 JPrj=0 DoOrth=F DoCkMO=F.
 Leave Link  401 at Mon Feb 22 21:25:06 2021, MaxMem=   104857600 cpu:              16.4 elap:               0.6
 (Enter /sw/arch/RedHatEnterpriseServer7/EB_production/2019/software/Gaussian/g16.c01/l502.exe)
 Integral symmetry usage will be decided dynamically.
 Closed shell SCF:
 Using DIIS extrapolation, IDIIS=  1040.
 NGot=   104857600 LenX=   104649138 LenY=   104551353
 Requested convergence on RMS density matrix=1.00D-08 within 128 cycles.
 Requested convergence on MAX density matrix=1.00D-06.
 Requested convergence on             energy=1.00D-06.
 No special actions if energy rises.
 Fock matrices will be formed incrementally for  20 cycles.

 Cycle   1  Pass 1  IDiag  1:
 FoFJK:  IHMeth= 1 ICntrl=     500 DoSepK=F KAlg= 0 I1Cent=           0 FoldK=F
 IRaf= 900000000 NMat=       1 IRICut=       1 DoRegI=T DoRafI=F ISym2E= 0 IDoP0=0 IntGTp=1.
 FoFCou: FMM=F IPFlag=           0 FMFlag=      100000 FMFlg1=           0
         NFxFlg=           0 DoJE=T BraDBF=F KetDBF=F FulRan=T
         wScrn=  0.000000 ICntrl=       500 IOpCl=  0 I1Cent=           0 NGrid=           0
         NMat0=    1 NMatS0=      1 NMatT0=    0 NMatD0=    1 NMtDS0=    0 NMtDT0=    0
 Symmetry not used in FoFCou.
 Inv3:  Mode=1 IEnd=     9271692.
 Iteration    1 A*A^-1 deviation from unit magnitude is 3.33D-15 for    630.
 Iteration    1 A*A^-1 deviation from orthogonality  is 2.23D-15 for   1418    725.
 Iteration    1 A^-1*A deviation from unit magnitude is 3.11D-15 for     39.
 Iteration    1 A^-1*A deviation from orthogonality  is 1.59D-15 for    752    206.
 E= -687.211416951750    
 DIIS: error= 1.82D-02 at cycle   1 NSaved=   1.
 NSaved= 1 IEnMin= 1 EnMin= -687.211416951750     IErMin= 1 ErrMin= 1.82D-02
 ErrMax= 1.82D-02  0.00D+00 EMaxC= 1.00D-01 BMatC= 3.40D-01 BMatP= 3.40D-01
 IDIUse=3 WtCom= 8.18D-01 WtEn= 1.82D-01
 Coeff-Com:  0.100D+01
 Coeff-En:   0.100D+01
 Coeff:      0.100D+01
 Gap=     0.193 Goal=   None    Shift=    0.000
 GapD=    0.193 DampG=1.000 DampE=0.500 DampFc=0.5000 IDamp=-1.
 Damping current iteration by 5.00D-01
 RMSDP=1.43D-02 MaxDP=1.49D+00              OVMax= 1.76D-01

 Cycle   2  Pass 1  IDiag  1:
 RMSU=  7.01D-03    CP:  1.10D+00
 E= -687.240786520518     Delta-E=       -0.029369568767 Rises=F Damp=T
 DIIS: error= 1.00D-02 at cycle   2 NSaved=   2.
 NSaved= 2 IEnMin= 2 EnMin= -687.240786520518     IErMin= 2 ErrMin= 1.00D-02
 ErrMax= 1.00D-02  0.00D+00 EMaxC= 1.00D-01 BMatC= 8.09D-02 BMatP= 3.40D-01
 IDIUse=3 WtCom= 9.00D-01 WtEn= 1.00D-01
 Coeff-Com:  0.306D+00 0.694D+00
 Coeff-En:   0.453D+00 0.547D+00
 Coeff:      0.321D+00 0.679D+00
 Gap=     0.232 Goal=   None    Shift=    0.000
 RMSDP=3.84D-03 MaxDP=4.07D-01 DE=-2.94D-02 OVMax= 1.12D-01

 Cycle   3  Pass 1  IDiag  1:
 RMSU=  1.20D-03    CP:  1.05D+00  4.88D-01
 E= -687.458298690119     Delta-E=       -0.217512169601 Rises=F Damp=F
 DIIS: error= 4.16D-03 at cycle   3 NSaved=   3.
 NSaved= 3 IEnMin= 3 EnMin= -687.458298690119     IErMin= 3 ErrMin= 4.16D-03
 ErrMax= 4.16D-03  0.00D+00 EMaxC= 1.00D-01 BMatC= 1.08D-02 BMatP= 8.09D-02
 IDIUse=3 WtCom= 9.58D-01 WtEn= 4.16D-02
 Coeff-Com:  0.109D+00 0.302D+00 0.589D+00
 Coeff-En:   0.000D+00 0.000D+00 0.100D+01
 Coeff:      0.105D+00 0.289D+00 0.606D+00
 Gap=     0.228 Goal=   None    Shift=    0.000
 RMSDP=7.12D-04 MaxDP=2.45D-02 DE=-2.18D-01 OVMax= 2.03D-02

 Cycle   4  Pass 1  IDiag  1:
 RMSU=  6.05D-04    CP:  1.05D+00  4.77D-01  6.96D-01
 E= -687.465215116242     Delta-E=       -0.006916426123 Rises=F Damp=F
 DIIS: error= 2.49D-03 at cycle   4 NSaved=   4.
 NSaved= 4 IEnMin= 4 EnMin= -687.465215116242     IErMin= 4 ErrMin= 2.49D-03
 ErrMax= 2.49D-03  0.00D+00 EMaxC= 1.00D-01 BMatC= 3.70D-03 BMatP= 1.08D-02
 IDIUse=3 WtCom= 9.75D-01 WtEn= 2.49D-02
 Coeff-Com:  0.336D-01 0.857D-01 0.373D+00 0.508D+00
 Coeff-En:   0.000D+00 0.000D+00 0.266D+00 0.734D+00
 Coeff:      0.328D-01 0.836D-01 0.370D+00 0.514D+00
 Gap=     0.223 Goal=   None    Shift=    0.000
 RMSDP=3.47D-04 MaxDP=1.05D-02 DE=-6.92D-03 OVMax= 7.86D-03

 Cycle   5  Pass 1  IDiag  1:
 RMSU=  1.42D-04    CP:  1.05D+00  4.74D-01  8.13D-01  5.39D-01
 E= -687.468431657682     Delta-E=       -0.003216541440 Rises=F Damp=F
 DIIS: error= 5.31D-04 at cycle   5 NSaved=   5.
 NSaved= 5 IEnMin= 5 EnMin= -687.468431657682     IErMin= 5 ErrMin= 5.31D-04
 ErrMax= 5.31D-04  0.00D+00 EMaxC= 1.00D-01 BMatC= 1.43D-04 BMatP= 3.70D-03
 IDIUse=3 WtCom= 9.95D-01 WtEn= 5.31D-03
 Coeff-Com:  0.119D-01 0.232D-01 0.154D+00 0.258D+00 0.553D+00
 Coeff-En:   0.000D+00 0.000D+00 0.000D+00 0.000D+00 0.100D+01
 Coeff:      0.118D-01 0.231D-01 0.153D+00 0.257D+00 0.555D+00
 Gap=     0.222 Goal=   None    Shift=    0.000
 RMSDP=6.51D-05 MaxDP=3.22D-03 DE=-3.22D-03 OVMax= 2.51D-03

 Cycle   6  Pass 1  IDiag  1:
 RMSU=  4.65D-05    CP:  1.05D+00  4.76D-01  8.06D-01  5.64D-01  7.14D-01
 E= -687.468497641931     Delta-E=       -0.000065984249 Rises=F Damp=F
 DIIS: error= 2.86D-04 at cycle   6 NSaved=   6.
 NSaved= 6 IEnMin= 6 EnMin= -687.468497641931     IErMin= 6 ErrMin= 2.86D-04
 ErrMax= 2.86D-04  0.00D+00 EMaxC= 1.00D-01 BMatC= 5.61D-05 BMatP= 1.43D-04
 IDIUse=3 WtCom= 9.97D-01 WtEn= 2.86D-03
 Coeff-Com:  0.383D-02 0.346D-02 0.565D-01 0.110D+00 0.399D+00 0.427D+00
 Coeff-En:   0.000D+00 0.000D+00 0.000D+00 0.000D+00 0.290D+00 0.710D+00
 Coeff:      0.382D-02 0.345D-02 0.563D-01 0.110D+00 0.399D+00 0.427D+00
 Gap=     0.222 Goal=   None    Shift=    0.000
 RMSDP=2.74D-05 MaxDP=1.36D-03 DE=-6.60D-05 OVMax= 1.12D-03

 Cycle   7  Pass 1  IDiag  1:
 RMSU=  8.94D-06    CP:  1.05D+00  4.74D-01  8.06D-01  5.72D-01  7.20D-01
                    CP:  4.92D-01
 E= -687.468536256606     Delta-E=       -0.000038614675 Rises=F Damp=F
 DIIS: error= 3.45D-05 at cycle   7 NSaved=   7.
 NSaved= 7 IEnMin= 7 EnMin= -687.468536256606     IErMin= 7 ErrMin= 3.45D-05
 ErrMax= 3.45D-05  0.00D+00 EMaxC= 1.00D-01 BMatC= 7.61D-07 BMatP= 5.61D-05
 IDIUse=1 WtCom= 1.00D+00 WtEn= 0.00D+00
 Coeff-Com:  0.168D-02 0.757D-03 0.233D-01 0.465D-01 0.181D+00 0.210D+00
 Coeff-Com:  0.536D+00
 Coeff:      0.168D-02 0.757D-03 0.233D-01 0.465D-01 0.181D+00 0.210D+00
 Coeff:      0.536D+00
 Gap=     0.222 Goal=   None    Shift=    0.000
 RMSDP=4.74D-06 MaxDP=2.68D-04 DE=-3.86D-05 OVMax= 1.33D-04

 Cycle   8  Pass 1  IDiag  1:
 RMSU=  2.95D-06    CP:  1.05D+00  4.74D-01  8.06D-01  5.71D-01  7.28D-01
                    CP:  5.09D-01  6.86D-01
 E= -687.468536781299     Delta-E=       -0.000000524694 Rises=F Damp=F
 DIIS: error= 1.54D-05 at cycle   8 NSaved=   8.
 NSaved= 8 IEnMin= 8 EnMin= -687.468536781299     IErMin= 8 ErrMin= 1.54D-05
 ErrMax= 1.54D-05  0.00D+00 EMaxC= 1.00D-01 BMatC= 1.77D-07 BMatP= 7.61D-07
 IDIUse=1 WtCom= 1.00D+00 WtEn= 0.00D+00
 Coeff-Com:  0.556D-03-0.639D-04 0.648D-02 0.130D-01 0.545D-01 0.676D-01
 Coeff-Com:  0.342D+00 0.516D+00
 Coeff:      0.556D-03-0.639D-04 0.648D-02 0.130D-01 0.545D-01 0.676D-01
 Coeff:      0.342D+00 0.516D+00
 Gap=     0.222 Goal=   None    Shift=    0.000
 RMSDP=1.69D-06 MaxDP=4.27D-05 DE=-5.25D-07 OVMax= 7.54D-05

 Cycle   9  Pass 1  IDiag  1:
 RMSU=  1.29D-06    CP:  1.05D+00  4.74D-01  8.06D-01  5.71D-01  7.28D-01
                    CP:  5.09D-01  7.13D-01  6.50D-01
 E= -687.468536873208     Delta-E=       -0.000000091909 Rises=F Damp=F
 DIIS: error= 4.36D-06 at cycle   9 NSaved=   9.
 NSaved= 9 IEnMin= 9 EnMin= -687.468536873208     IErMin= 9 ErrMin= 4.36D-06
 ErrMax= 4.36D-06  0.00D+00 EMaxC= 1.00D-01 BMatC= 1.08D-08 BMatP= 1.77D-07
 IDIUse=1 WtCom= 1.00D+00 WtEn= 0.00D+00
 Coeff-Com:  0.140D-03-0.112D-03 0.110D-02 0.215D-02 0.979D-02 0.133D-01
 Coeff-Com:  0.122D+00 0.265D+00 0.586D+00
 Coeff:      0.140D-03-0.112D-03 0.110D-02 0.215D-02 0.979D-02 0.133D-01
 Coeff:      0.122D+00 0.265D+00 0.586D+00
 Gap=     0.222 Goal=   None    Shift=    0.000
 RMSDP=7.63D-07 MaxDP=6.69D-05 DE=-9.19D-08 OVMax= 2.16D-05

 Cycle  10  Pass 1  IDiag  1:
 RMSU=  4.07D-07    CP:  1.05D+00  4.74D-01  8.06D-01  5.71D-01  7.29D-01
                    CP:  5.06D-01  7.24D-01  7.22D-01  7.19D-01
 E= -687.468536863374     Delta-E=        0.000000009835 Rises=F Damp=F
 DIIS: error= 1.84D-06 at cycle  10 NSaved=  10.
 NSaved=10 IEnMin= 9 EnMin= -687.468536873208     IErMin=10 ErrMin= 1.84D-06
 ErrMax= 1.84D-06  0.00D+00 EMaxC= 1.00D-01 BMatC= 2.20D-09 BMatP= 1.08D-08
 IDIUse=1 WtCom= 1.00D+00 WtEn= 0.00D+00
 Coeff-Com:  0.234D-04-0.613D-04-0.614D-04-0.172D-03-0.368D-03 0.207D-03
 Coeff-Com:  0.338D-01 0.101D+00 0.369D+00 0.497D+00
 Coeff:      0.234D-04-0.613D-04-0.614D-04-0.172D-03-0.368D-03 0.207D-03
 Coeff:      0.338D-01 0.101D+00 0.369D+00 0.497D+00
 Gap=     0.222 Goal=   None    Shift=    0.000
 RMSDP=2.37D-07 MaxDP=1.66D-05 DE= 9.83D-09 OVMax= 7.20D-06

 Cycle  11  Pass 1  IDiag  1:
 RMSU=  8.56D-08    CP:  1.05D+00  4.74D-01  8.06D-01  5.71D-01  7.28D-01
                    CP:  5.07D-01  7.31D-01  7.12D-01  7.64D-01  5.95D-01
 E= -687.468536880940     Delta-E=       -0.000000017567 Rises=F Damp=F
 DIIS: error= 1.24D-07 at cycle  11 NSaved=  11.
 NSaved=11 IEnMin=11 EnMin= -687.468536880940     IErMin=11 ErrMin= 1.24D-07
 ErrMax= 1.24D-07  0.00D+00 EMaxC= 1.00D-01 BMatC= 1.84D-11 BMatP= 2.20D-09
 IDIUse=1 WtCom= 1.00D+00 WtEn= 0.00D+00
 Coeff-Com:  0.372D-05-0.180D-04-0.525D-04-0.120D-03-0.414D-03-0.283D-03
 Coeff-Com:  0.820D-02 0.278D-01 0.112D+00 0.178D+00 0.675D+00
 Coeff:      0.372D-05-0.180D-04-0.525D-04-0.120D-03-0.414D-03-0.283D-03
 Coeff:      0.820D-02 0.278D-01 0.112D+00 0.178D+00 0.675D+00
 Gap=     0.222 Goal=   None    Shift=    0.000
 RMSDP=3.21D-08 MaxDP=8.91D-07 DE=-1.76D-08 OVMax= 7.79D-07

 Cycle  12  Pass 1  IDiag  1:
 RMSU=  2.14D-08    CP:  1.05D+00  4.74D-01  8.06D-01  5.71D-01  7.28D-01
                    CP:  5.07D-01  7.30D-01  7.12D-01  7.68D-01  6.14D-01
                    CP:  8.11D-01
 E= -687.468536880944     Delta-E=       -0.000000000004 Rises=F Damp=F
 DIIS: error= 7.72D-08 at cycle  12 NSaved=  12.
 NSaved=12 IEnMin=12 EnMin= -687.468536880944     IErMin=12 ErrMin= 7.72D-08
 ErrMax= 7.72D-08  0.00D+00 EMaxC= 1.00D-01 BMatC= 5.99D-12 BMatP= 1.84D-11
 IDIUse=1 WtCom= 1.00D+00 WtEn= 0.00D+00
 Coeff-Com:  0.644D-06-0.704D-05-0.287D-04-0.633D-04-0.235D-03-0.186D-03
 Coeff-Com:  0.281D-02 0.105D-01 0.451D-01 0.765D-01 0.412D+00 0.453D+00
 Coeff:      0.644D-06-0.704D-05-0.287D-04-0.633D-04-0.235D-03-0.186D-03
 Coeff:      0.281D-02 0.105D-01 0.451D-01 0.765D-01 0.412D+00 0.453D+00
 Gap=     0.222 Goal=   None    Shift=    0.000
 RMSDP=1.17D-08 MaxDP=4.40D-07 DE=-3.87D-12 OVMax= 3.55D-07

 Cycle  13  Pass 1  IDiag  1:
 RMSU=  7.25D-09    CP:  1.05D+00  4.74D-01  8.06D-01  5.71D-01  7.28D-01
                    CP:  5.07D-01  7.30D-01  7.13D-01  7.68D-01  6.09D-01
                    CP:  8.34D-01  6.19D-01
 E= -687.468536880959     Delta-E=       -0.000000000015 Rises=F Damp=F
 DIIS: error= 2.05D-08 at cycle  13 NSaved=  13.
 NSaved=13 IEnMin=13 EnMin= -687.468536880959     IErMin=13 ErrMin= 2.05D-08
 ErrMax= 2.05D-08  0.00D+00 EMaxC= 1.00D-01 BMatC= 2.74D-13 BMatP= 5.99D-12
 IDIUse=1 WtCom= 1.00D+00 WtEn= 0.00D+00
 Coeff-Com: -0.666D-07-0.139D-05-0.705D-05-0.153D-04-0.600D-04-0.446D-04
 Coeff-Com:  0.462D-03 0.199D-02 0.901D-02 0.169D-01 0.124D+00 0.222D+00
 Coeff-Com:  0.625D+00
 Coeff:     -0.666D-07-0.139D-05-0.705D-05-0.153D-04-0.600D-04-0.446D-04
 Coeff:      0.462D-03 0.199D-02 0.901D-02 0.169D-01 0.124D+00 0.222D+00
 Coeff:      0.625D+00
 Gap=     0.222 Goal=   None    Shift=    0.000
 RMSDP=3.57D-09 MaxDP=1.79D-07 DE=-1.46D-11 OVMax= 9.06D-08

 Error on total polarization charges =  0.01029
 SCF Done:  E(RB-P86) =  -687.468536881     A.U. after   13 cycles
            NFock= 13  Conv=0.36D-08     -V/T= 2.0043
 KE= 6.844955617766D+02 PE=-3.251522149294D+03 EE= 1.061463960324D+03
 Leave Link  502 at Mon Feb 22 21:25:26 2021, MaxMem=   104857600 cpu:             604.4 elap:              19.3
 (Enter /sw/arch/RedHatEnterpriseServer7/EB_production/2019/software/Gaussian/g16.c01/l601.exe)
 Copying SCF densities to generalized density rwf, IOpCl= 0 IROHF=0.

 **********************************************************************

            Population analysis using the SCF Density.

 **********************************************************************

 Orbital symmetries:
       Occupied  (A) (A) (A) (A) (A) (A) (A) (A) (A) (A) (A) (A)
                 (A) (A) (A) (A) (A) (A) (A) (A) (A) (A) (A) (A)
                 (A) (A) (A) (A) (A) (A) (A) (A) (A) (A) (A) (A)
                 (A) (A) (A) (A) (A) (A) (A) (A) (A) (A) (A) (A)
       Virtual   (A) (A) (A) (A) (A) (A) (A) (A) (A) (A) (A) (A)
                 (A) (A) (A) (A) (A) (A) (A) (A) (A) (A) (A) (A)
                 (A) (A) (A) (A) (A) (A) (A) (A) (A) (A) (A) (A)
                 (A) (A) (A) (A) (A) (A) (A) (A) (A) (A) (A) (A)
                 (A) (A) (A) (A) (A) (A) (A) (A) (A) (A) (A) (A)
                 (A) (A) (A) (A) (A) (A) (A) (A) (A) (A) (A) (A)
                 (A) (A) (A) (A) (A) (A) (A) (A) (A) (A) (A) (A)
                 (A) (A) (A) (A) (A) (A) (A) (A) (A) (A) (A) (A)
                 (A) (A) (A) (A) (A) (A) (A) (A) (A) (A) (A) (A)
                 (A) (A) (A) (A) (A) (A) (A) (A) (A) (A) (A) (A)
                 (A) (A) (A) (A) (A) (A) (A) (A) (A) (A) (A) (A)
                 (A) (A) (A) (A) (A) (A) (A) (A) (A) (A) (A) (A)
                 (A) (A) (A) (A) (A) (A) (A) (A) (A) (A) (A) (A)
                 (A) (A) (A) (A) (A) (A) (A) (A) (A) (A) (A) (A)
                 (A) (A) (A) (A) (A) (A) (A) (A) (A) (A) (A) (A)
                 (A) (A) (A) (A) (A) (A) (A) (A) (A) (A) (A) (A)
                 (A) (A) (A) (A) (A) (A) (A) (A) (A) (A) (A) (A)
                 (A) (A) (A) (A) (A) (A) (A) (A) (A) (A) (A) (A)
                 (A) (A) (A) (A) (A) (A) (A) (A) (A) (A) (A) (A)
                 (A) (A) (A) (A) (A) (A) (A) (A) (A) (A) (A) (A)
                 (A) (A) (A) (A) (A) (A) (A) (A) (A) (A) (A) (A)
 The electronic state is 1-A.
 Alpha  occ. eigenvalues --  -18.79323 -18.78887 -18.78527 -18.78512 -18.78307
 Alpha  occ. eigenvalues --  -18.77670 -10.00917  -9.96747  -9.96693  -9.96462
 Alpha  occ. eigenvalues --   -9.96391  -9.95159  -0.99462  -0.96583  -0.95597
 Alpha  occ. eigenvalues --   -0.94633  -0.94098  -0.92343  -0.71810  -0.70704
 Alpha  occ. eigenvalues --   -0.63403  -0.59427  -0.56883  -0.53273  -0.50705
 Alpha  occ. eigenvalues --   -0.49193  -0.47883  -0.46762  -0.45610  -0.45119
 Alpha  occ. eigenvalues --   -0.42527  -0.41019  -0.40188  -0.38998  -0.37670
 Alpha  occ. eigenvalues --   -0.37460  -0.35210  -0.34097  -0.32394  -0.31492
 Alpha  occ. eigenvalues --   -0.30323  -0.28545  -0.26581  -0.25563  -0.24707
 Alpha  occ. eigenvalues --   -0.24290  -0.23518  -0.23057
 Alpha virt. eigenvalues --   -0.00860   0.00773   0.01856   0.02603   0.03276
 Alpha virt. eigenvalues --    0.04585   0.06708   0.06990   0.07741   0.08320
 Alpha virt. eigenvalues --    0.09790   0.10248   0.11377   0.11460   0.12159
 Alpha virt. eigenvalues --    0.12492   0.13754   0.14660   0.15883   0.16443
 Alpha virt. eigenvalues --    0.18355   0.19650   0.20758   0.21127   0.24372
 Alpha virt. eigenvalues --    0.24566   0.25599   0.26489   0.27753   0.28087
 Alpha virt. eigenvalues --    0.28982   0.30218   0.30815   0.31023   0.31588
 Alpha virt. eigenvalues --    0.32323   0.33418   0.34015   0.34571   0.35204
 Alpha virt. eigenvalues --    0.36355   0.37108   0.37724   0.38755   0.39342
 Alpha virt. eigenvalues --    0.40075   0.40658   0.41086   0.42282   0.42570
 Alpha virt. eigenvalues --    0.43200   0.43590   0.44739   0.45736   0.47058
 Alpha virt. eigenvalues --    0.47434   0.48725   0.50530   0.51552   0.52195
 Alpha virt. eigenvalues --    0.52492   0.54047   0.55691   0.55985   0.57644
 Alpha virt. eigenvalues --    0.58822   0.59855   0.61135   0.62459   0.63512
 Alpha virt. eigenvalues --    0.66271   0.68102   0.72921   0.73771   0.74506
 Alpha virt. eigenvalues --    0.77143   0.79018   0.81528   0.84473   0.87272
 Alpha virt. eigenvalues --    0.88278   0.88663   0.93616   0.98201   1.11536
 Alpha virt. eigenvalues --    1.12855   1.18370   1.19164   1.21717   1.21938
 Alpha virt. eigenvalues --    1.23114   1.23562   1.24556   1.26184   1.26900
 Alpha virt. eigenvalues --    1.28266   1.30238   1.30678   1.31448   1.33441
 Alpha virt. eigenvalues --    1.34101   1.35507   1.36194   1.37843   1.39063
 Alpha virt. eigenvalues --    1.39748   1.41082   1.42118   1.43850   1.45628
 Alpha virt. eigenvalues --    1.47864   1.48602   1.49956   1.50295   1.51186
 Alpha virt. eigenvalues --    1.53867   1.53960   1.57272   1.58276   1.58840
 Alpha virt. eigenvalues --    1.62593   1.64561   1.67044   1.68213   1.71411
 Alpha virt. eigenvalues --    1.71640   1.72237   1.73982   1.75888   1.76694
 Alpha virt. eigenvalues --    1.78568   1.81013   1.83956   1.84812   1.86886
 Alpha virt. eigenvalues --    1.88761   1.89101   1.90500   1.91871   1.92517
 Alpha virt. eigenvalues --    1.93014   1.94437   1.95803   1.98002   2.00670
 Alpha virt. eigenvalues --    2.00981   2.02104   2.03697   2.04486   2.05732
 Alpha virt. eigenvalues --    2.06550   2.09664   2.11841   2.13670   2.17734
 Alpha virt. eigenvalues --    2.20798   2.23241   2.23393   2.27262   2.28626
 Alpha virt. eigenvalues --    2.29335   2.34786   2.38710   2.43900   2.44482
 Alpha virt. eigenvalues --    2.45339   2.46988   2.48366   2.50761   2.51848
 Alpha virt. eigenvalues --    2.52364   2.55450   2.57196   2.58331   2.59083
 Alpha virt. eigenvalues --    2.60176   2.60635   2.62030   2.62358   2.63697
 Alpha virt. eigenvalues --    2.64401   2.67313   2.68118   2.68837   2.70055
 Alpha virt. eigenvalues --    2.72668   2.75157   2.77368   2.80710   2.80786
 Alpha virt. eigenvalues --    2.83018   2.84653   2.85193   2.85285   2.86796
 Alpha virt. eigenvalues --    2.87356   2.88365   2.89522   2.89669   2.91753
 Alpha virt. eigenvalues --    2.92875   2.93899   2.95272   2.96113   2.97519
 Alpha virt. eigenvalues --    2.97885   2.99384   3.03919   3.06215   3.06383
 Alpha virt. eigenvalues --    3.08124   3.08551   3.10043   3.12692   3.14112
 Alpha virt. eigenvalues --    3.14740   3.17071   3.20446   3.23852   3.26023
 Alpha virt. eigenvalues --    3.26725   3.29695   3.31929   3.37720   3.38825
 Alpha virt. eigenvalues --    3.40971   3.42241   3.47459   3.81465   3.85116
 Alpha virt. eigenvalues --    3.90274   3.92583   3.93418   3.94505   4.00496
 Alpha virt. eigenvalues --    4.15543   4.15775   4.16572   4.17200   4.17353
 Alpha virt. eigenvalues --   21.58421  21.66370  21.68802  21.76375  21.77215
 Alpha virt. eigenvalues --   21.86015  43.10967  43.14159  43.20652  43.23573
 Alpha virt. eigenvalues --   43.29507  43.42593
          Condensed to atoms (all electrons):
               1          2          3          4          5          6
     1  O    7.951518   0.342472  -0.121066   0.006388  -0.000373  -0.000167
     2  C    0.342472   5.192606  -0.013264  -0.033323  -0.003188  -0.001679
     3  C   -0.121066  -0.013264   6.349350   0.165995  -0.212414  -0.026380
     4  O    0.006388  -0.033323   0.165995   8.082999   0.251679  -0.093694
     5  C   -0.000373  -0.003188  -0.212414   0.251679   5.501847   0.251314
     6  O   -0.000167  -0.001679  -0.026380  -0.093694   0.251314   7.992207
     7  C    0.000171   0.009590   0.077228   0.006108  -0.056943  -0.064642
     8  O   -0.000000   0.000050  -0.000700   0.005875  -0.035909  -0.000302
     9  C   -0.000441  -0.016230   0.177216  -0.053897  -0.032296  -0.025618
    10  O    0.000000   0.000033   0.010212  -0.000133   0.020166  -0.000246
    11  C    0.011863   0.036321  -0.586508   0.015350   0.128191   0.004403
    12  O   -0.000104  -0.004685  -0.074532   0.004408  -0.001757   0.000033
    13  H    0.301889  -0.048080   0.020657  -0.000267   0.000142  -0.000004
    14  H   -0.060107   0.394087  -0.036150   0.005936   0.001813   0.000065
    15  H   -0.060342   0.402748  -0.044008  -0.005292  -0.003144   0.000096
    16  H    0.010277  -0.045597   0.342957  -0.072526  -0.036864   0.044608
    17  H    0.000018  -0.000356   0.005778  -0.044968   0.379183  -0.056223
    18  H    0.000246  -0.000107  -0.000256   0.007118  -0.026161   0.289625
    19  H   -0.000000  -0.000592   0.002749   0.002306  -0.048428   0.005761
    20  H    0.000000  -0.000011   0.000297   0.000415  -0.003495   0.001196
    21  H    0.000018  -0.002891  -0.026386  -0.000196   0.003962   0.017807
    22  H   -0.000000   0.000071  -0.001604   0.000038   0.001582   0.000006
    23  H   -0.000418  -0.038058  -0.041075   0.001229  -0.000279   0.001092
    24  H   -0.000006   0.001625   0.021849  -0.000316  -0.000964  -0.000020
               7          8          9         10         11         12
     1  O    0.000171  -0.000000  -0.000441   0.000000   0.011863  -0.000104
     2  C    0.009590   0.000050  -0.016230   0.000033   0.036321  -0.004685
     3  C    0.077228  -0.000700   0.177216   0.010212  -0.586508  -0.074532
     4  O    0.006108   0.005875  -0.053897  -0.000133   0.015350   0.004408
     5  C   -0.056943  -0.035909  -0.032296   0.020166   0.128191  -0.001757
     6  O   -0.064642  -0.000302  -0.025618  -0.000246   0.004403   0.000033
     7  C    5.931075   0.258915  -0.179911  -0.031288  -0.070115   0.023082
     8  O    0.258915   7.952175  -0.088222  -0.002412   0.019434  -0.000131
     9  C   -0.179911  -0.088222   6.120194   0.247520  -0.315377  -0.026370
    10  O   -0.031288  -0.002412   0.247520   7.943344  -0.078034  -0.003456
    11  C   -0.070115   0.019434  -0.315377  -0.078034   6.386870   0.253810
    12  O    0.023082  -0.000131  -0.026370  -0.003456   0.253810   7.929741
    13  H   -0.000026   0.000000   0.000104  -0.000000  -0.001522   0.000052
    14  H   -0.000240   0.000000  -0.001667  -0.000007   0.010002   0.016442
    15  H    0.000208   0.000002  -0.000738   0.000006  -0.005685  -0.001024
    16  H   -0.001660   0.000034  -0.032226  -0.000450  -0.009663   0.007806
    17  H   -0.063136  -0.007293   0.022238  -0.000449  -0.004473   0.000047
    18  H    0.013573  -0.000850  -0.000919   0.000015   0.001618  -0.000027
    19  H    0.389622  -0.056553  -0.040950   0.002387  -0.011659  -0.000477
    20  H   -0.034450   0.302201   0.013408  -0.000530  -0.001918   0.000022
    21  H   -0.088088   0.003474   0.386946  -0.062779  -0.023422  -0.000043
    22  H   -0.006602   0.014148  -0.044214   0.305972   0.022397  -0.000498
    23  H   -0.015663  -0.000504  -0.042112   0.002692   0.384896  -0.064144
    24  H    0.003572  -0.000034   0.013270   0.012547  -0.065737   0.302174
              13         14         15         16         17         18
     1  O    0.301889  -0.060107  -0.060342   0.010277   0.000018   0.000246
     2  C   -0.048080   0.394087   0.402748  -0.045597  -0.000356  -0.000107
     3  C    0.020657  -0.036150  -0.044008   0.342957   0.005778  -0.000256
     4  O   -0.000267   0.005936  -0.005292  -0.072526  -0.044968   0.007118
     5  C    0.000142   0.001813  -0.003144  -0.036864   0.379183  -0.026161
     6  O   -0.000004   0.000065   0.000096   0.044608  -0.056223   0.289625
     7  C   -0.000026  -0.000240   0.000208  -0.001660  -0.063136   0.013573
     8  O    0.000000   0.000000   0.000002   0.000034  -0.007293  -0.000850
     9  C    0.000104  -0.001667  -0.000738  -0.032226   0.022238  -0.000919
    10  O   -0.000000  -0.000007   0.000006  -0.000450  -0.000449   0.000015
    11  C   -0.001522   0.010002  -0.005685  -0.009663  -0.004473   0.001618
    12  O    0.000052   0.016442  -0.001024   0.007806   0.000047  -0.000027
    13  H    0.436619  -0.002740  -0.004407  -0.000480   0.000001  -0.000010
    14  H   -0.002740   0.603354  -0.066804  -0.015295   0.000037  -0.000051
    15  H   -0.004407  -0.066804   0.635918   0.015791  -0.000109   0.000037
    16  H   -0.000480  -0.015295   0.015791   0.632354   0.000865   0.000305
    17  H    0.000001   0.000037  -0.000109   0.000865   0.591926  -0.012151
    18  H   -0.000010  -0.000051   0.000037   0.000305  -0.012151   0.437086
    19  H   -0.000001  -0.000004   0.000124   0.001264  -0.009501  -0.000430
    20  H   -0.000000  -0.000000   0.000001   0.000001   0.004935  -0.000223
    21  H   -0.000001   0.000192   0.000045   0.010773  -0.000138  -0.000234
    22  H    0.000000   0.000001  -0.000000  -0.000058  -0.000066  -0.000001
    23  H   -0.000037  -0.000795   0.010756   0.016476  -0.000402   0.000069
    24  H   -0.000007  -0.000059  -0.000288  -0.001315   0.000007  -0.000000
              19         20         21         22         23         24
     1  O   -0.000000   0.000000   0.000018  -0.000000  -0.000418  -0.000006
     2  C   -0.000592  -0.000011  -0.002891   0.000071  -0.038058   0.001625
     3  C    0.002749   0.000297  -0.026386  -0.001604  -0.041075   0.021849
     4  O    0.002306   0.000415  -0.000196   0.000038   0.001229  -0.000316
     5  C   -0.048428  -0.003495   0.003962   0.001582  -0.000279  -0.000964
     6  O    0.005761   0.001196   0.017807   0.000006   0.001092  -0.000020
     7  C    0.389622  -0.034450  -0.088088  -0.006602  -0.015663   0.003572
     8  O   -0.056553   0.302201   0.003474   0.014148  -0.000504  -0.000034
     9  C   -0.040950   0.013408   0.386946  -0.044214  -0.042112   0.013270
    10  O    0.002387  -0.000530  -0.062779   0.305972   0.002692   0.012547
    11  C   -0.011659  -0.001918  -0.023422   0.022397   0.384896  -0.065737
    12  O   -0.000477   0.000022  -0.000043  -0.000498  -0.064144   0.302174
    13  H   -0.000001  -0.000000  -0.000001   0.000000  -0.000037  -0.000007
    14  H   -0.000004  -0.000000   0.000192   0.000001  -0.000795  -0.000059
    15  H    0.000124   0.000001   0.000045  -0.000000   0.010756  -0.000288
    16  H    0.001264   0.000001   0.010773  -0.000058   0.016476  -0.001315
    17  H   -0.009501   0.004935  -0.000138  -0.000066  -0.000402   0.000007
    18  H   -0.000430  -0.000223  -0.000234  -0.000001   0.000069  -0.000000
    19  H    0.577873  -0.008153   0.014597  -0.003365   0.008867  -0.000062
    20  H   -0.008153   0.427889  -0.000620  -0.000557   0.000019   0.000004
    21  H    0.014597  -0.000620   0.605862  -0.009757   0.014793  -0.004329
    22  H   -0.003365  -0.000557  -0.009757   0.421226  -0.000844  -0.000472
    23  H    0.008867   0.000019   0.014793  -0.000844   0.620027  -0.010095
    24  H   -0.000062   0.000004  -0.004329  -0.000472  -0.010095   0.432706
 Mulliken charges:
               1
     1  O   -0.381835
     2  C   -0.171542
     3  C    0.010057
     4  O   -0.251231
     5  C   -0.077664
     6  O   -0.339237
     7  C   -0.100380
     8  O   -0.363401
     9  C   -0.079709
    10  O   -0.365111
    11  C   -0.101042
    12  O   -0.360368
    13  H    0.298119
    14  H    0.151988
    15  H    0.126111
    16  H    0.132621
    17  H    0.194229
    18  H    0.291728
    19  H    0.174624
    20  H    0.299568
    21  H    0.160416
    22  H    0.302597
    23  H    0.153510
    24  H    0.295950
 Sum of Mulliken charges =  -0.00000
 Mulliken charges with hydrogens summed into heavy atoms:
               1
     1  O   -0.083716
     2  C    0.106557
     3  C    0.142678
     4  O   -0.251231
     5  C    0.116566
     6  O   -0.047509
     7  C    0.074244
     8  O   -0.063833
     9  C    0.080707
    10  O   -0.062514
    11  C    0.052469
    12  O   -0.064418
 Electronic spatial extent (au):  <R**2>=           2210.6991
 Charge=             -0.0000 electrons
 Dipole moment (field-independent basis, Debye):
    X=             -0.1497    Y=             -0.5946    Z=             -2.4788  Tot=              2.5535
 Quadrupole moment (field-independent basis, Debye-Ang):
   XX=            -60.3832   YY=            -66.5069   ZZ=            -74.1524
   XY=              6.9932   XZ=              2.0495   YZ=              1.3030
 Traceless Quadrupole moment (field-independent basis, Debye-Ang):
   XX=              6.6309   YY=              0.5073   ZZ=             -7.1382
   XY=              6.9932   XZ=              2.0495   YZ=              1.3030
 Octapole moment (field-independent basis, Debye-Ang**2):
  XXX=             46.0190  YYY=            -23.3111  ZZZ=             -1.2242  XYY=            -17.8454
  XXY=              8.5923  XXZ=            -19.4541  XZZ=             -1.4282  YZZ=             -2.9364
  YYZ=              0.3242  XYZ=            -20.9608
 Hexadecapole moment (field-independent basis, Debye-Ang**3):
 XXXX=          -1168.3530 YYYY=           -732.8250 ZZZZ=           -206.5592 XXXY=             45.9883
 XXXZ=            -21.7824 YYYX=             16.9504 YYYZ=             -2.4423 ZZZX=              4.8251
 ZZZY=             -4.4868 XXYY=           -410.7695 XXZZ=           -302.4037 YYZZ=           -178.1486
 XXYZ=             33.5481 YYXZ=             14.0240 ZZXY=             -1.1233
 N-N= 8.180940903124D+02 E-N=-3.251522147402D+03  KE= 6.844955617766D+02
 No NMR shielding tensors so no spin-rotation constants.
 Leave Link  601 at Mon Feb 22 21:25:26 2021, MaxMem=   104857600 cpu:               5.8 elap:               0.2
 (Enter /sw/arch/RedHatEnterpriseServer7/EB_production/2019/software/Gaussian/g16.c01/l701.exe)
 ... and contract with generalized density number  0.
 Compute integral first derivatives.
 R6Disp: Adding Grimme-D3 dispersion energy 1st derivatives to the gradient.
 PrsmSu:  requested number of processors reduced to:  28 ShMem   1 Linda.
 D1PCM: PCM CHGder 1st derivatives, ID1Alg=3 FixD1E=F DoIter=F DoCFld=F I1PDM=0.
 GePol: Maximum number of non-zero 1st derivatives   =     188
 CoulSu:  requested number of processors reduced to:  29 ShMem   1 Linda.
 CoulSu:  requested number of processors reduced to:  29 ShMem   1 Linda.
 Leave Link  701 at Mon Feb 22 21:25:27 2021, MaxMem=   104857600 cpu:              28.1 elap:               0.9
 (Enter /sw/arch/RedHatEnterpriseServer7/EB_production/2019/software/Gaussian/g16.c01/l702.exe)
 L702 exits ... SP integral derivatives will be done elsewhere.
 Leave Link  702 at Mon Feb 22 21:25:27 2021, MaxMem=   104857600 cpu:               0.6 elap:               0.0
 (Enter /sw/arch/RedHatEnterpriseServer7/EB_production/2019/software/Gaussian/g16.c01/l703.exe)
 Integral derivatives from FoFJK, PRISM(SPDF).
 Compute integral first derivatives, UseDBF=F ICtDFT=           0.
 Calling FoFJK, ICntrl=      2527 FMM=F ISym2X=0 I1Cent= 0 IOpClX= 0 NMat=1 NMatS=1 NMatT=0.
 FoFJK:  IHMeth= 1 ICntrl=    2527 DoSepK=F KAlg= 0 I1Cent=           0 FoldK=F
 IRaf=         0 NMat=       1 IRICut=       1 DoRegI=T DoRafI=F ISym2E= 0 IDoP0=0 IntGTp=1.
 FoFCou: FMM=F IPFlag=           0 FMFlag=      100000 FMFlg1=         800
         NFxFlg=           0 DoJE=F BraDBF=F KetDBF=F FulRan=T
         wScrn=  0.000000 ICntrl=      2527 IOpCl=  0 I1Cent=           0 NGrid=           0
         NMat0=    1 NMatS0=      1 NMatT0=    0 NMatD0=    1 NMtDS0=    0 NMtDT0=    0
 Symmetry not used in FoFCou.
 Leave Link  703 at Mon Feb 22 21:25:30 2021, MaxMem=   104857600 cpu:              95.9 elap:               3.0
 (Enter /sw/arch/RedHatEnterpriseServer7/EB_production/2019/software/Gaussian/g16.c01/l716.exe)
 Dipole        =-5.89012046D-02-2.33931926D-01-9.75240110D-01
 ***** Axes restored to original set *****
 -------------------------------------------------------------------
 Center     Atomic                   Forces (Hartrees/Bohr)
 Number     Number              X              Y              Z
 -------------------------------------------------------------------
      1        8           0.013409628    0.003085948    0.002860187
      2        6          -0.011082783   -0.000187226    0.014186193
      3        6          -0.004578968    0.016086833   -0.007358975
      4        8          -0.002133189   -0.024017345    0.015812613
      5        6           0.005294924    0.004082103   -0.025704363
      6        8          -0.003382960    0.006671825   -0.001349371
      7        6           0.013181507    0.004007957   -0.009332284
      8        8          -0.003414113    0.003767035    0.002852993
      9        6           0.009228624    0.003629567    0.018879445
     10        8          -0.006634987   -0.007644607   -0.001135798
     11        6          -0.001186646    0.002784980    0.000888207
     12        8          -0.001771620    0.001716790   -0.007595728
     13        1          -0.001412703    0.006489412    0.004779595
     14        1          -0.011076668    0.002764925   -0.007029151
     15        1          -0.008737716   -0.009419301    0.002784750
     16        1          -0.000905837    0.006989176   -0.007621124
     17        1           0.005789348   -0.013777006    0.005457884
     18        1          -0.003116158    0.002310528   -0.000644978
     19        1           0.004120788   -0.010194823   -0.001471871
     20        1          -0.005577176    0.003741163   -0.004447458
     21        1           0.010644341    0.006320527   -0.000695013
     22        1           0.001049110   -0.004226910   -0.002890749
     23        1          -0.001407132   -0.006460213    0.010047096
     24        1           0.003700388    0.001478663   -0.001272101
 -------------------------------------------------------------------
 Cartesian Forces:  Max     0.025704363 RMS     0.008096930
 Leave Link  716 at Mon Feb 22 21:25:31 2021, MaxMem=   104857600 cpu:               0.8 elap:               0.1
 (Enter /sw/arch/RedHatEnterpriseServer7/EB_production/2019/software/Gaussian/g16.c01/l103.exe)

 GradGradGradGradGradGradGradGradGradGradGradGradGradGradGradGradGradGrad
 Berny optimization.
 FormGI is forming the generalized inverse of G from B-inverse, IUseBI=4.
 Internal  Forces:  Max     0.021665780 RMS     0.006349621
 Search for a local minimum.
 Step number   1 out of a maximum of  142
 All quantities printed in internal units (Hartrees-Bohrs-Radians)
 RMS Force = .63496D-02 SwitMx=.10000D-02 MixMth= 1
 Mixed Optimization -- RFO/linear search
 Second derivative matrix not updated -- first step.
 ITU=  0
     Eigenvalues ---    0.00230   0.00444   0.00473   0.01153   0.01286
     Eigenvalues ---    0.01318   0.01334   0.01383   0.01393   0.02544
     Eigenvalues ---    0.02970   0.03810   0.04332   0.04623   0.04729
     Eigenvalues ---    0.04928   0.04997   0.05066   0.05525   0.05602
     Eigenvalues ---    0.06613   0.06971   0.07154   0.07384   0.07831
     Eigenvalues ---    0.09382   0.10896   0.11577   0.11686   0.13841
     Eigenvalues ---    0.15102   0.16000   0.16000   0.16000   0.16000
     Eigenvalues ---    0.16000   0.16807   0.17492   0.19078   0.19781
     Eigenvalues ---    0.20213   0.22027   0.25721   0.26656   0.26719
     Eigenvalues ---    0.27280   0.27282   0.34322   0.34364   0.34379
     Eigenvalues ---    0.34397   0.34480   0.34689   0.34822   0.37194
     Eigenvalues ---    0.37875   0.40890   0.41244   0.41419   0.41956
     Eigenvalues ---    0.42071   0.51153   0.51260   0.51340   0.51490
     Eigenvalues ---    0.51578
 RFO step:  Lambda=-2.81646631D-02 EMin= 2.30000000D-03
 Linear search not attempted -- first point.
 Maximum step size (   0.300) exceeded in Quadratic search.
    -- Step size scaled by   0.965
 Iteration  1 RMS(Cart)=  0.07219190 RMS(Int)=  0.00219825
 Iteration  2 RMS(Cart)=  0.00283857 RMS(Int)=  0.00093395
 Iteration  3 RMS(Cart)=  0.00000557 RMS(Int)=  0.00093394
 Iteration  4 RMS(Cart)=  0.00000001 RMS(Int)=  0.00093394
 ITry= 1 IFail=0 DXMaxC= 3.11D-01 DCOld= 1.00D+10 DXMaxT= 3.00D-01 DXLimC= 3.00D+00 Rises=F
 Variable       Old X    -DE/DX   Delta X   Delta X   Delta X     New X
                                 (Linear)    (Quad)   (Total)
    R1        2.68833   0.01577   0.00000   0.03392   0.03392   2.72224
    R2        1.85419  -0.00724   0.00000  -0.01294  -0.01294   1.84125
    R3        2.93735  -0.02167   0.00000  -0.06947  -0.06947   2.86789
    R4        2.06183   0.00741   0.00000   0.01908   0.01908   2.08091
    R5        2.05964   0.01112   0.00000   0.02852   0.02852   2.08816
    R6        2.73625  -0.00351   0.00000  -0.01116  -0.01055   2.72571
    R7        2.94735  -0.01595   0.00000  -0.04969  -0.04898   2.89837
    R8        2.06720   0.00866   0.00000   0.02249   0.02249   2.08969
    R9        2.72744  -0.01063   0.00000  -0.02658  -0.02662   2.70082
   R10        2.68979   0.00707   0.00000   0.01525   0.01525   2.70504
   R11        2.93119  -0.00528   0.00000  -0.01931  -0.01998   2.91121
   R12        2.06527   0.00627   0.00000   0.01622   0.01622   2.08149
   R13        1.85006  -0.00298   0.00000  -0.00528  -0.00528   1.84478
   R14        2.69897   0.01004   0.00000   0.02200   0.02200   2.72097
   R15        2.93753  -0.01571   0.00000  -0.04660  -0.04725   2.89028
   R16        2.06695   0.00684   0.00000   0.01776   0.01776   2.08471
   R17        1.85315  -0.00532   0.00000  -0.00949  -0.00949   1.84365
   R18        2.69669   0.00951   0.00000   0.02076   0.02076   2.71745
   R19        2.93905  -0.01644   0.00000  -0.04970  -0.04962   2.88943
   R20        2.06790   0.00709   0.00000   0.01843   0.01843   2.08633
   R21        1.85236  -0.00474   0.00000  -0.00845  -0.00845   1.84391
   R22        2.70362   0.00905   0.00000   0.01999   0.01999   2.72362
   R23        2.06666   0.00858   0.00000   0.02226   0.02226   2.08891
   R24        1.85091  -0.00349   0.00000  -0.00621  -0.00621   1.84470
    A1        1.82987   0.00705   0.00000   0.03616   0.03616   1.86603
    A2        1.93259  -0.01125   0.00000  -0.04143  -0.04122   1.89137
    A3        1.88726   0.01052   0.00000   0.05940   0.05751   1.94477
    A4        1.88707   0.00897   0.00000   0.05875   0.05791   1.94497
    A5        1.91842  -0.00724   0.00000  -0.05867  -0.05876   1.85966
    A6        1.94627  -0.00173   0.00000  -0.02059  -0.02043   1.92584
    A7        1.89064   0.00162   0.00000   0.00782   0.00486   1.89550
    A8        1.97961  -0.01088   0.00000  -0.07210  -0.07385   1.90576
    A9        1.99859  -0.00494   0.00000  -0.04321  -0.04574   1.95285
   A10        1.83554   0.00543   0.00000   0.04186   0.04378   1.87932
   A11        1.93857   0.00866   0.00000   0.01436   0.01095   1.94953
   A12        1.82495   0.00470   0.00000   0.06995   0.07042   1.89536
   A13        1.87118  -0.00171   0.00000   0.00785   0.00752   1.87870
   A14        2.02548  -0.01232   0.00000  -0.05293  -0.05196   1.97353
   A15        1.87918   0.01250   0.00000   0.07569   0.07593   1.95511
   A16        1.95740  -0.00077   0.00000  -0.01905  -0.02012   1.93728
   A17        1.92311  -0.00920   0.00000  -0.08062  -0.08184   1.84127
   A18        1.91738  -0.01102   0.00000  -0.02784  -0.02702   1.89036
   A19        1.86506   0.00560   0.00000   0.05265   0.05335   1.91841
   A20        1.91904   0.00325   0.00000   0.00388   0.00232   1.92136
   A21        1.82878   0.00428   0.00000   0.02194   0.02194   1.85072
   A22        1.91746   0.00676   0.00000   0.04266   0.04276   1.96022
   A23        1.93677   0.00147   0.00000   0.00107   0.00095   1.93772
   A24        1.90500  -0.00282   0.00000  -0.01821  -0.01909   1.88591
   A25        1.91869  -0.00833   0.00000  -0.04400  -0.04360   1.87508
   A26        1.87390   0.00389   0.00000   0.04252   0.04191   1.91580
   A27        1.91088  -0.00089   0.00000  -0.02282  -0.02287   1.88801
   A28        1.82982   0.01081   0.00000   0.05547   0.05547   1.88529
   A29        1.92501   0.00586   0.00000   0.01570   0.01430   1.93931
   A30        1.94562   0.00058   0.00000  -0.00515  -0.00574   1.93988
   A31        1.90561  -0.00240   0.00000  -0.00023  -0.00056   1.90504
   A32        1.93047  -0.01042   0.00000  -0.06279  -0.06234   1.86812
   A33        1.85003   0.00552   0.00000   0.06252   0.06212   1.91215
   A34        1.90442   0.00112   0.00000  -0.00634  -0.00579   1.89863
   A35        1.83861   0.00404   0.00000   0.02072   0.02072   1.85933
   A36        1.96489  -0.00413   0.00000  -0.02542  -0.02484   1.94004
   A37        1.88682  -0.00159   0.00000  -0.01287  -0.01318   1.87364
   A38        1.92235   0.00065   0.00000  -0.00498  -0.00545   1.91690
   A39        1.90815   0.00397   0.00000   0.01984   0.01936   1.92751
   A40        1.91412  -0.00128   0.00000  -0.01686  -0.01776   1.89635
   A41        1.86457   0.00279   0.00000   0.04450   0.04472   1.90929
   A42        1.83886   0.00421   0.00000   0.02161   0.02161   1.86047
    D1       -3.12399   0.00209   0.00000   0.01975   0.02005  -3.10394
    D2       -1.02126  -0.00694   0.00000  -0.03970  -0.04205  -1.06331
    D3        1.02222   0.00541   0.00000   0.03275   0.03480   1.05702
    D4       -0.91729  -0.00309   0.00000  -0.08387  -0.08142  -0.99871
    D5        3.11590  -0.00077   0.00000   0.00293   0.00124   3.11714
    D6        1.06649   0.00045   0.00000  -0.01066  -0.01040   1.05610
    D7       -3.00137  -0.00443   0.00000  -0.09403  -0.09200  -3.09337
    D8        1.03182  -0.00211   0.00000  -0.00722  -0.00934   1.02248
    D9       -1.01759  -0.00090   0.00000  -0.02081  -0.02098  -1.03857
   D10        1.18478  -0.00052   0.00000  -0.05141  -0.04955   1.13523
   D11       -1.06522   0.00179   0.00000   0.03540   0.03312  -1.03210
   D12       -3.11462   0.00301   0.00000   0.02181   0.02147  -3.09315
   D13        3.04162   0.00362   0.00000   0.04351   0.04287   3.08449
   D14       -0.96127  -0.00507   0.00000  -0.06750  -0.06813  -1.02941
   D15        1.05148  -0.00042   0.00000  -0.01315  -0.01167   1.03981
   D16        3.14159  -0.00658   0.00000  -0.07073  -0.07093   3.07066
   D17       -1.03198  -0.00528   0.00000  -0.07064  -0.07083  -1.10281
   D18        0.99936  -0.00250   0.00000  -0.02744  -0.02786   0.97150
   D19        0.87122   0.00521   0.00000   0.05623   0.05679   0.92801
   D20        2.98084   0.00651   0.00000   0.05633   0.05688   3.03772
   D21       -1.27101   0.00929   0.00000   0.09953   0.09985  -1.17116
   D22       -1.11264  -0.00380   0.00000  -0.03835  -0.03846  -1.15110
   D23        0.99697  -0.00251   0.00000  -0.03826  -0.03837   0.95861
   D24        3.02831   0.00028   0.00000   0.00494   0.00460   3.03291
   D25       -1.11498   0.00650   0.00000   0.03976   0.03911  -1.07587
   D26        0.99634   0.00066   0.00000   0.04383   0.04334   1.03968
   D27        3.14021  -0.00233   0.00000  -0.02270  -0.01976   3.12045
   D28       -0.98473  -0.00012   0.00000  -0.00352  -0.00491  -0.98964
   D29       -3.12096  -0.00038   0.00000  -0.01100  -0.01108  -3.13204
   D30        1.08098  -0.00148   0.00000  -0.03107  -0.02961   1.05137
   D31       -3.04026  -0.00129   0.00000  -0.01835  -0.01836  -3.05862
   D32       -0.91483  -0.00625   0.00000  -0.04427  -0.04399  -0.95882
   D33        1.19257  -0.00826   0.00000  -0.08384  -0.08364   1.10893
   D34       -0.95111   0.00652   0.00000   0.04583   0.04568  -0.90544
   D35        1.17432   0.00157   0.00000   0.01992   0.02005   1.19437
   D36       -3.00147  -0.00045   0.00000  -0.01966  -0.01960  -3.02107
   D37        1.09675   0.00872   0.00000   0.09572   0.09575   1.19250
   D38       -3.06100   0.00376   0.00000   0.06981   0.07012  -2.99089
   D39       -0.95360   0.00175   0.00000   0.03023   0.03047  -0.92314
   D40       -1.08371  -0.00156   0.00000  -0.03091  -0.03200  -1.11571
   D41        3.06329  -0.00237   0.00000  -0.03140  -0.03150   3.03179
   D42        0.98592   0.00107   0.00000  -0.00441  -0.00323   0.98269
   D43        3.00792  -0.00681   0.00000  -0.04699  -0.04744   2.96048
   D44        0.85626   0.00196   0.00000   0.02598   0.02581   0.88207
   D45       -1.24910   0.00178   0.00000   0.03734   0.03700  -1.21209
   D46       -1.15055  -0.00295   0.00000  -0.02223  -0.02258  -1.17313
   D47        2.98098   0.00583   0.00000   0.05074   0.05067   3.03165
   D48        0.87562   0.00565   0.00000   0.06210   0.06187   0.93749
   D49        0.90400  -0.00366   0.00000  -0.01006  -0.01000   0.89400
   D50       -1.24766   0.00512   0.00000   0.06290   0.06325  -1.18441
   D51        2.93017   0.00494   0.00000   0.07427   0.07444   3.00461
   D52        1.02433   0.00209   0.00000   0.03132   0.03210   1.05643
   D53       -3.09840  -0.00033   0.00000  -0.00800  -0.00744  -3.10584
   D54       -1.03631  -0.00128   0.00000  -0.01236  -0.01369  -1.05000
   D55       -0.84668   0.00104   0.00000  -0.02030  -0.02073  -0.86741
   D56       -2.94403   0.00301   0.00000  -0.00119  -0.00110  -2.94513
[...]
   14      H14      5.76  -0.029   -0.03    0.81   -0.62
   15      H15      6.61  -0.031   -0.17    0.93   -0.82
   16      H16      6.09  -0.028    0.12    0.86   -0.54
   17      H17      6.57  -0.048   -0.61    0.93   -0.96
   18      H18      8.54  -0.133   -1.92    1.21   -1.01
   19      H19      6.59  -0.041   -0.47    0.93   -0.84
   20      H20      8.59  -0.134   -2.85    1.21   -1.03
   21      H21      6.25  -0.031    0.08    0.88   -0.68
   22      H22      7.37  -0.104   -1.10    1.04   -0.78
   23      H23      6.64  -0.034   -0.20    0.94   -0.74
   24      H24      7.18  -0.103   -0.76    1.01   -0.76
 --------------------------------------------------------------------
 - cavitation energy not included in the total energy.
 - dispersion energy not included in the total energy.
 - repulsion  energy not included in the total energy.
 After PCM corrections, the energy is  -687.472216468     a.u.
 --------------------------------------------------------------------
 Writing COSMO formatted file "WQZGKKKJIJFFOK-MDMQIMBFSA-N.cosmo"
 Recomputed dielectric energy= -0.039576 old= -0.039395 diff=-1.82D-04

 **********************************************************************

            Population analysis using the SCF Density.

 **********************************************************************

 Orbital symmetries:
       Occupied  (A) (A) (A) (A) (A) (A) (A) (A) (A) (A) (A) (A)
                 (A) (A) (A) (A) (A) (A) (A) (A) (A) (A) (A) (A)
                 (A) (A) (A) (A) (A) (A) (A) (A) (A) (A) (A) (A)
                 (A) (A) (A) (A) (A) (A) (A) (A) (A) (A) (A) (A)
       Virtual   (A) (A) (A) (A) (A) (A) (A) (A) (A) (A) (A) (A)
                 (A) (A) (A) (A) (A) (A) (A) (A) (A) (A) (A) (A)
                 (A) (A) (A) (A) (A) (A) (A) (A) (A) (A) (A) (A)
                 (A) (A) (A) (A) (A) (A) (A) (A) (A) (A) (A) (A)
                 (A) (A) (A) (A) (A) (A) (A) (A) (A) (A) (A) (A)
                 (A) (A) (A) (A) (A) (A) (A) (A) (A) (A) (A) (A)
                 (A) (A) (A) (A) (A) (A) (A) (A) (A) (A) (A) (A)
                 (A) (A) (A) (A) (A) (A) (A) (A) (A) (A) (A) (A)
                 (A) (A) (A) (A) (A) (A) (A) (A) (A) (A) (A) (A)
                 (A) (A) (A) (A) (A) (A) (A) (A) (A) (A) (A) (A)
                 (A) (A) (A) (A) (A) (A) (A) (A) (A) (A) (A) (A)
                 (A) (A) (A) (A) (A) (A) (A) (A) (A) (A) (A) (A)
                 (A) (A) (A) (A) (A) (A) (A) (A) (A) (A) (A) (A)
                 (A) (A) (A) (A) (A) (A) (A) (A) (A) (A) (A) (A)
                 (A) (A) (A) (A) (A) (A) (A) (A) (A) (A) (A) (A)
                 (A) (A) (A) (A) (A) (A) (A) (A) (A) (A) (A) (A)
                 (A) (A) (A) (A) (A) (A) (A) (A) (A) (A) (A) (A)
                 (A) (A) (A) (A) (A) (A) (A) (A) (A) (A) (A) (A)
                 (A) (A) (A) (A) (A) (A) (A) (A) (A) (A) (A) (A)
                 (A) (A) (A) (A) (A) (A) (A) (A) (A) (A) (A) (A)
                 (A) (A) (A) (A) (A) (A) (A) (A) (A) (A) (A) (A)
 The electronic state is 1-A.
 Alpha  occ. eigenvalues --  -18.79213 -18.78673 -18.78434 -18.78106 -18.78065
 Alpha  occ. eigenvalues --  -18.77446 -10.00172  -9.95874  -9.95849  -9.95716
 Alpha  occ. eigenvalues --   -9.95597  -9.94569  -0.99273  -0.96070  -0.94998
 Alpha  occ. eigenvalues --   -0.93922  -0.93230  -0.92608  -0.72456  -0.71109
 Alpha  occ. eigenvalues --   -0.63084  -0.58960  -0.56176  -0.53363  -0.50241
 Alpha  occ. eigenvalues --   -0.49274  -0.47762  -0.46292  -0.44839  -0.44569
 Alpha  occ. eigenvalues --   -0.42382  -0.40509  -0.38767  -0.37840  -0.36993
 Alpha  occ. eigenvalues --   -0.36735  -0.34942  -0.33519  -0.31869  -0.31284
 Alpha  occ. eigenvalues --   -0.29988  -0.28742  -0.26631  -0.25988  -0.24850
 Alpha  occ. eigenvalues --   -0.24588  -0.23801  -0.22800
 Alpha virt. eigenvalues --    0.00300   0.01811   0.02734   0.03134   0.03822
 Alpha virt. eigenvalues --    0.05776   0.07372   0.07399   0.08581   0.09010
 Alpha virt. eigenvalues --    0.10573   0.10908   0.11506   0.12338   0.12769
 Alpha virt. eigenvalues --    0.13550   0.14437   0.15102   0.16569   0.16741
 Alpha virt. eigenvalues --    0.18950   0.20340   0.21603   0.22150   0.24068
 Alpha virt. eigenvalues --    0.25773   0.26524   0.26973   0.28089   0.28954
 Alpha virt. eigenvalues --    0.29277   0.30444   0.31293   0.31799   0.31997
 Alpha virt. eigenvalues --    0.32440   0.33320   0.35008   0.35281   0.35573
 Alpha virt. eigenvalues --    0.37489   0.37954   0.38745   0.39496   0.40040
 Alpha virt. eigenvalues --    0.40935   0.41037   0.41556   0.42390   0.42877
 Alpha virt. eigenvalues --    0.43455   0.44674   0.45172   0.46648   0.47064
 Alpha virt. eigenvalues --    0.47880   0.49368   0.50490   0.52261   0.52963
 Alpha virt. eigenvalues --    0.53926   0.54252   0.55495   0.56993   0.57807
 Alpha virt. eigenvalues --    0.58076   0.59950   0.61201   0.64331   0.64647
 Alpha virt. eigenvalues --    0.66354   0.69048   0.72355   0.74975   0.76122
 Alpha virt. eigenvalues --    0.79050   0.79995   0.83407   0.86421   0.88262
 Alpha virt. eigenvalues --    0.88704   0.90612   0.95168   0.95394   1.11734
 Alpha virt. eigenvalues --    1.13452   1.18306   1.21096   1.22340   1.22987
 Alpha virt. eigenvalues --    1.24096   1.25423   1.25964   1.27131   1.28215
 Alpha virt. eigenvalues --    1.28379   1.30386   1.31834   1.32886   1.34229
 Alpha virt. eigenvalues --    1.35478   1.35732   1.37311   1.38254   1.39863
 Alpha virt. eigenvalues --    1.41358   1.41587   1.43817   1.44797   1.47628
 Alpha virt. eigenvalues --    1.48893   1.49115   1.50849   1.52410   1.53246
 Alpha virt. eigenvalues --    1.53661   1.56557   1.58082   1.60027   1.60658
 Alpha virt. eigenvalues --    1.62709   1.65746   1.66588   1.68294   1.69320
 Alpha virt. eigenvalues --    1.71531   1.73466   1.74174   1.75902   1.76905
 Alpha virt. eigenvalues --    1.78717   1.82734   1.83832   1.87355   1.87803
 Alpha virt. eigenvalues --    1.89951   1.91563   1.92331   1.93049   1.93721
 Alpha virt. eigenvalues --    1.94850   1.97497   1.98023   1.98535   2.01132
 Alpha virt. eigenvalues --    2.01943   2.04084   2.04178   2.05126   2.07230
 Alpha virt. eigenvalues --    2.07948   2.09856   2.13338   2.16414   2.20181
 Alpha virt. eigenvalues --    2.22042   2.25480   2.26450   2.27574   2.30400
 Alpha virt. eigenvalues --    2.31624   2.36292   2.39558   2.43129   2.45243
 Alpha virt. eigenvalues --    2.45912   2.47251   2.48849   2.49723   2.51795
 Alpha virt. eigenvalues --    2.53734   2.56094   2.57401   2.58425   2.60532
 Alpha virt. eigenvalues --    2.60883   2.61979   2.62289   2.62632   2.63459
 Alpha virt. eigenvalues --    2.65766   2.67275   2.68280   2.69305   2.71606
 Alpha virt. eigenvalues --    2.73634   2.77203   2.79646   2.80855   2.82838
 Alpha virt. eigenvalues --    2.83748   2.84442   2.85594   2.86929   2.87810
 Alpha virt. eigenvalues --    2.88163   2.88883   2.91172   2.91668   2.93238
 Alpha virt. eigenvalues --    2.93927   2.94859   2.96554   2.97590   3.00082
 Alpha virt. eigenvalues --    3.01127   3.02696   3.04093   3.05088   3.06543
 Alpha virt. eigenvalues --    3.08646   3.08776   3.10140   3.13056   3.13647
 Alpha virt. eigenvalues --    3.16132   3.17205   3.20428   3.23763   3.25022
 Alpha virt. eigenvalues --    3.27574   3.29584   3.32583   3.36391   3.39352
 Alpha virt. eigenvalues --    3.43502   3.43957   3.47348   3.79311   3.84661
 Alpha virt. eigenvalues --    3.88914   3.92827   3.94785   3.96177   4.03262
 Alpha virt. eigenvalues --    4.16856   4.17651   4.18469   4.18539   4.19371
 Alpha virt. eigenvalues --   21.57634  21.65232  21.68757  21.79440  21.79684
 Alpha virt. eigenvalues --   21.89691  43.10197  43.16627  43.21818  43.26582
 Alpha virt. eigenvalues --   43.29542  43.41735
          Condensed to atoms (all electrons):
               1          2          3          4          5          6
     1  O    7.973041   0.341364  -0.117075   0.001625   0.000416  -0.000153
     2  C    0.341364   5.170316  -0.038641  -0.034286   0.004539  -0.001398
     3  C   -0.117075  -0.038641   6.492718   0.161829  -0.233934  -0.035332
     4  O    0.001625  -0.034286   0.161829   8.108901   0.198808  -0.084708
     5  C    0.000416   0.004539  -0.233934   0.198808   5.600114   0.282428
     6  O   -0.000153  -0.001398  -0.035332  -0.084708   0.282428   7.971198
     7  C    0.000120   0.008996   0.056666   0.012717  -0.054658  -0.063850
     8  O   -0.000000   0.000021  -0.002167   0.006359  -0.056640   0.003597
     9  C   -0.000627  -0.030199   0.197333  -0.040454  -0.085600  -0.039356
    10  O    0.000001  -0.000143   0.014951  -0.000227   0.021337  -0.000299
    11  C    0.011331   0.092141  -0.691435   0.000467   0.134674   0.012220
    12  O   -0.000138  -0.018334  -0.065808   0.004850  -0.003661  -0.000011
    13  H    0.305671  -0.044204   0.018926  -0.000431   0.000103  -0.000003
    14  H   -0.054585   0.406468  -0.088772   0.007228   0.001788   0.000016
    15  H   -0.050888   0.391702  -0.029878  -0.003363  -0.002802   0.000187
    16  H    0.010800  -0.038018   0.337680  -0.054800  -0.024635   0.036095
    17  H    0.000083  -0.000929   0.007472  -0.053661   0.384605  -0.052508
    18  H    0.000081  -0.000058  -0.001182   0.003981  -0.018982   0.295769
    19  H   -0.000001  -0.000273   0.000375  -0.000561  -0.055434   0.005492
    20  H    0.000000  -0.000022   0.000239   0.000342  -0.001644   0.000983
    21  H   -0.000004  -0.002711  -0.020953  -0.001177  -0.000385   0.021830
    22  H   -0.000000   0.000093  -0.001682   0.000059   0.002507  -0.000003
    23  H   -0.000282  -0.034071  -0.016722  -0.000519  -0.003812   0.001064
    24  H   -0.000013   0.001523   0.018210  -0.000284  -0.000955  -0.000027
               7          8          9         10         11         12
     1  O    0.000120  -0.000000  -0.000627   0.000001   0.011331  -0.000138
     2  C    0.008996   0.000021  -0.030199  -0.000143   0.092141  -0.018334
     3  C    0.056666  -0.002167   0.197333   0.014951  -0.691435  -0.065808
     4  O    0.012717   0.006359  -0.040454  -0.000227   0.000467   0.004850
     5  C   -0.054658  -0.056640  -0.085600   0.021337   0.134674  -0.003661
     6  O   -0.063850   0.003597  -0.039356  -0.000299   0.012220  -0.000011
     7  C    5.834311   0.309943  -0.151277  -0.039741  -0.051286   0.023211
     8  O    0.309943   7.970035  -0.130913  -0.000631   0.024028  -0.000144
     9  C   -0.151277  -0.130913   6.229680   0.255281  -0.354679  -0.033962
    10  O   -0.039741  -0.000631   0.255281   7.982581  -0.099640  -0.004481
    11  C   -0.051286   0.024028  -0.354679  -0.099640   6.495469   0.255830
    12  O    0.023211  -0.000144  -0.033962  -0.004481   0.255830   7.952503
    13  H   -0.000022   0.000000   0.000109  -0.000000  -0.001911   0.000060
    14  H   -0.000438   0.000003  -0.000056  -0.000005   0.028865   0.022632
    15  H   -0.000177   0.000005  -0.002045  -0.000011  -0.010750  -0.000108
    16  H   -0.002962  -0.000032  -0.032878  -0.000432  -0.015490   0.010752
    17  H   -0.058881  -0.000446   0.019747  -0.000424  -0.003415   0.000054
    18  H    0.010346  -0.000937  -0.000249   0.000015   0.001337  -0.000017
    19  H    0.401745  -0.051342  -0.046531   0.001608  -0.003637  -0.000613
    20  H   -0.032679   0.309504   0.014489  -0.000317  -0.002124   0.000020
    21  H   -0.086875   0.003238   0.383917  -0.059331  -0.035903   0.003279
    22  H   -0.000575   0.020415  -0.056684   0.309486   0.023363  -0.000293
    23  H   -0.022424  -0.000871  -0.025091   0.004205   0.345214  -0.060082
    24  H    0.004226  -0.000033   0.004861   0.017705  -0.061096   0.305607
              13         14         15         16         17         18
     1  O    0.305671  -0.054585  -0.050888   0.010800   0.000083   0.000081
     2  C   -0.044204   0.406468   0.391702  -0.038018  -0.000929  -0.000058
     3  C    0.018926  -0.088772  -0.029878   0.337680   0.007472  -0.001182
     4  O   -0.000431   0.007228  -0.003363  -0.054800  -0.053661   0.003981
     5  C    0.000103   0.001788  -0.002802  -0.024635   0.384605  -0.018982
     6  O   -0.000003   0.000016   0.000187   0.036095  -0.052508   0.295769
     7  C   -0.000022  -0.000438  -0.000177  -0.002962  -0.058881   0.010346
     8  O    0.000000   0.000003   0.000005  -0.000032  -0.000446  -0.000937
     9  C    0.000109  -0.000056  -0.002045  -0.032878   0.019747  -0.000249
    10  O   -0.000000  -0.000005  -0.000011  -0.000432  -0.000424   0.000015
    11  C   -0.001911   0.028865  -0.010750  -0.015490  -0.003415   0.001337
    12  O    0.000060   0.022632  -0.000108   0.010752   0.000054  -0.000017
    13  H    0.409929  -0.002335  -0.002067  -0.000284  -0.000003  -0.000005
    14  H   -0.002335   0.597616  -0.056221  -0.009945   0.000048  -0.000020
    15  H   -0.002067  -0.056221   0.608793   0.014032  -0.000226   0.000025
    16  H   -0.000284  -0.009945   0.014032   0.599482   0.001204   0.000408
    17  H   -0.000003   0.000048  -0.000226   0.001204   0.585697  -0.012488
    18  H   -0.000005  -0.000020   0.000025   0.000408  -0.012488   0.407169
    19  H   -0.000000  -0.000026   0.000217   0.000928  -0.007293  -0.000356
    20  H   -0.000000  -0.000000   0.000001   0.000010   0.002526  -0.000043
    21  H   -0.000001   0.000034   0.000009   0.010647   0.000453  -0.000336
    22  H    0.000000   0.000006  -0.000002  -0.000089  -0.000109   0.000003
    23  H   -0.000010  -0.003810   0.010548   0.015015  -0.000378   0.000073
    24  H   -0.000007   0.000039  -0.000265  -0.001021   0.000006  -0.000000
              19         20         21         22         23         24
     1  O   -0.000001   0.000000  -0.000004  -0.000000  -0.000282  -0.000013
     2  C   -0.000273  -0.000022  -0.002711   0.000093  -0.034071   0.001523
     3  C    0.000375   0.000239  -0.020953  -0.001682  -0.016722   0.018210
     4  O   -0.000561   0.000342  -0.001177   0.000059  -0.000519  -0.000284
     5  C   -0.055434  -0.001644  -0.000385   0.002507  -0.003812  -0.000955
     6  O    0.005492   0.000983   0.021830  -0.000003   0.001064  -0.000027
     7  C    0.401745  -0.032679  -0.086875  -0.000575  -0.022424   0.004226
     8  O   -0.051342   0.309504   0.003238   0.020415  -0.000871  -0.000033
     9  C   -0.046531   0.014489   0.383917  -0.056684  -0.025091   0.004861
    10  O    0.001608  -0.000317  -0.059331   0.309486   0.004205   0.017705
    11  C   -0.003637  -0.002124  -0.035903   0.023363   0.345214  -0.061096
    12  O   -0.000613   0.000020   0.003279  -0.000293  -0.060082   0.305607
    13  H   -0.000000  -0.000000  -0.000001   0.000000  -0.000010  -0.000007
    14  H   -0.000026  -0.000000   0.000034   0.000006  -0.003810   0.000039
    15  H    0.000217   0.000001   0.000009  -0.000002   0.010548  -0.000265
    16  H    0.000928   0.000010   0.010647  -0.000089   0.015015  -0.001021
    17  H   -0.007293   0.002526   0.000453  -0.000109  -0.000378   0.000006
    18  H   -0.000356  -0.000043  -0.000336   0.000003   0.000073  -0.000000
    19  H    0.565402  -0.010998   0.014839  -0.003068   0.012036  -0.000100
    20  H   -0.010998   0.396471  -0.001039  -0.000574   0.000028   0.000005
    21  H    0.014839  -0.001039   0.601955  -0.007755   0.015510  -0.004097
    22  H   -0.003068  -0.000574  -0.007755   0.404563  -0.001104  -0.000599
    23  H    0.012036   0.000028   0.015510  -0.001104   0.618350  -0.006092
    24  H   -0.000100   0.000005  -0.004097  -0.000599  -0.006092   0.412023
 Mulliken charges:
               1
     1  O   -0.420768
     2  C   -0.173876
     3  C    0.037180
     4  O   -0.232694
     5  C   -0.088178
     6  O   -0.353232
     7  C   -0.096437
     8  O   -0.402993
     9  C   -0.074818
    10  O   -0.401489
    11  C   -0.093574
    12  O   -0.391146
    13  H    0.316485
    14  H    0.151469
    15  H    0.133284
    16  H    0.143534
    17  H    0.188866
    18  H    0.315467
    19  H    0.177591
    20  H    0.324823
    21  H    0.164854
    22  H    0.312042
    23  H    0.153225
    24  H    0.310384
 Sum of Mulliken charges =  -0.00000
 Mulliken charges with hydrogens summed into heavy atoms:
               1
     1  O   -0.104283
     2  C    0.110877
     3  C    0.180714
     4  O   -0.232694
     5  C    0.100688
     6  O   -0.037764
     7  C    0.081154
     8  O   -0.078170
     9  C    0.090036
    10  O   -0.089447
    11  C    0.059651
    12  O   -0.080762
 Electronic spatial extent (au):  <R**2>=           2154.5515
 Charge=              0.0000 electrons
 Dipole moment (field-independent basis, Debye):
    X=             -1.1041    Y=             -1.2724    Z=             -3.1839  Tot=              3.6021
 Quadrupole moment (field-independent basis, Debye-Ang):
   XX=            -59.6911   YY=            -67.3150   ZZ=            -72.1773
   XY=              5.2325   XZ=              2.0548   YZ=              1.3224
 Traceless Quadrupole moment (field-independent basis, Debye-Ang):
   XX=              6.7034   YY=             -0.9205   ZZ=             -5.7829
   XY=              5.2325   XZ=              2.0548   YZ=              1.3224
 Octapole moment (field-independent basis, Debye-Ang**2):
  XXX=             28.4329  YYY=            -29.1054  ZZZ=             -2.0864  XYY=            -16.4071
  XXY=              5.7226  XXZ=            -33.1599  XZZ=             -4.8566  YZZ=             -4.9119
  YYZ=              4.7906  XYZ=            -19.6856
 Hexadecapole moment (field-independent basis, Debye-Ang**3):
 XXXX=          -1077.4410 YYYY=           -713.6982 ZZZZ=           -209.9034 XXXY=             31.7593
 XXXZ=             -8.5470 YYYX=              3.1811 YYYZ=            -10.3125 ZZZX=              7.3095
 ZZZY=             -4.9881 XXYY=           -407.1880 XXZZ=           -287.1373 YYZZ=           -167.5859
 XXYZ=             39.2872 YYXZ=             11.9544 ZZXY=              1.4931
 N-N= 8.255771027018D+02 E-N=-3.266764944793D+03  KE= 6.845420800458D+02
 Unable to Open any file for archive entry.
 1\1\GINC-TCN1634\SP\RBP86\TZVP\C6H12O6\ELENAA\22-Feb-2021\0\\# BP86/TZ
 VP SCRF=COSMORS geom=CHECKPOINT guess=CHECKPOINT\\COSMO-file for #WQZG
 KKKJIJFFOK-MDMQIMBFSA-N\\0,1\O,0,2.1308360549,1.0659329284,-4.12390265
 04\C,0,0.7907797869,0.5734655772,-4.3101670781\C,0,-0.1853959472,1.617
 9532283,-3.80392748\O,0,-0.0894829785,1.6391960911,-2.3566791305\C,0,-
 0.9173157861,2.6302020885,-1.7363580036\O,0,-0.6119823662,3.9462422234
 ,-2.1647708556\C,0,-2.3941420803,2.336037435,-2.0680386759\O,0,-3.3085
 007134,3.3127048717,-1.5468342928\C,0,-2.5889649471,2.3034254803,-3.58
 23036536\O,0,-3.9210681051,1.8896288943,-3.9353372652\C,0,-1.628962789
 1,1.3055360729,-4.2270690726\O,0,-1.7024064604,1.3754535433,-5.6604552
 096\H,0,2.7391995495,0.3916962195,-4.4740467157\H,0,0.5751141549,0.392
 4865907,-5.3775148455\H,0,0.6265390149,-0.3679341409,-3.7522200777\H,0
 ,0.0967897103,2.6056610937,-4.2101428567\H,0,-0.7262218004,2.504394401
 4,-0.6572343665\H,0,0.2798825983,4.1624902473,-1.8351490376\H,0,-2.622
 4504636,1.3332332712,-1.6655860013\H,0,-3.4822725482,3.1000440339,-0.6
 129233964\H,0,-2.3786809285,3.3089811017,-3.9931542601\H,0,-4.52980695
 92,2.5064999223,-3.486480785\H,0,-1.8962502753,0.2888151692,-3.8747040
 558\H,0,-2.6509540629,1.3311258335,-5.8870887358\\Version=ES64L-G16Rev
 C.01\State=1-A\HF=-687.4722165\RMSD=9.384e-09\Dipole=-0.2970277,-0.706
 7301,1.1919406\Quadrupole=0.2498033,-2.9882088,2.7384055,-2.2242894,-3
 .9683029,3.3748963\PG=C01 [X(C6H12O6)]\\@
 The archive entry for this job was punched.


 I am not a vegetarian because I love animals;
 I am a vegetarian because I hate plants.
                               -- A. Whitney Brown
 Job cpu time:       0 days  0 hours  8 minutes  7.6 seconds.
 Elapsed time:       0 days  0 hours  0 minutes 15.8 seconds.
 File lengths (MBytes):  RWF=     69 Int=      0 D2E=      0 Chk=     10 Scr=      1
 Normal termination of Gaussian 16 at Mon Feb 22 21:29:22 2021.
