 Entering Gaussian System, Link 0=g16
 Input=XBDQKXXYIPTUBI-UHFFFAOYSA-N.gjf
 Output=XBDQKXXYIPTUBI-UHFFFAOYSA-N.log
 Initial command:
 /sw/arch/RedHatEnterpriseServer7/EB_production/2019/software/Gaussian/g16.c01/l1.exe "/scratch-local/elenaa.9715295/Gau-22538.inp" -scrdir="/scratch-local/elenaa.9715295/"
 Entering Link 1 = /sw/arch/RedHatEnterpriseServer7/EB_production/2019/software/Gaussian/g16.c01/l1.exe PID=     22539.
  
 Copyright (c) 1988-2019, Gaussian, Inc.  All Rights Reserved.
  
 This is part of the Gaussian(R) 16 program.  It is based on
 the Gaussian(R) 09 system (copyright 2009, Gaussian, Inc.),
 the Gaussian(R) 03 system (copyright 2003, Gaussian, Inc.),
 the Gaussian(R) 98 system (copyright 1998, Gaussian, Inc.),
 the Gaussian(R) 94 system (copyright 1995, Gaussian, Inc.),
 the Gaussian 92(TM) system (copyright 1992, Gaussian, Inc.),
 the Gaussian 90(TM) system (copyright 1990, Gaussian, Inc.),
 the Gaussian 88(TM) system (copyright 1988, Gaussian, Inc.),
 the Gaussian 86(TM) system (copyright 1986, Carnegie Mellon
 University), and the Gaussian 82(TM) system (copyright 1983,
 Carnegie Mellon University). Gaussian is a federally registered
 trademark of Gaussian, Inc.
  
 This software contains proprietary and confidential information,
 including trade secrets, belonging to Gaussian, Inc.
  
 This software is provided under written license and may be
 used, copied, transmitted, or stored only in accord with that
 written license.
  
 The following legend is applicable only to US Government
 contracts under FAR:
  
                    RESTRICTED RIGHTS LEGEND
  
 Use, reproduction and disclosure by the US Government is
 subject to restrictions as set forth in subparagraphs (a)
 and (c) of the Commercial Computer Software - Restricted
 Rights clause in FAR 52.227-19.
  
 Gaussian, Inc.
 340 Quinnipiac St., Bldg. 40, Wallingford CT 06492
  
  
 ---------------------------------------------------------------
 Warning -- This program may not be used in any manner that
 competes with the business of Gaussian, Inc. or will provide
 assistance to any competitor of Gaussian, Inc.  The licensee
 of this program is prohibited from giving any competitor of
 Gaussian, Inc. access to this program.  By using this program,
 the user acknowledges that Gaussian, Inc. is engaged in the
 business of creating and licensing software in the field of
 computational chemistry and represents and warrants to the
 licensee that it is not a competitor of Gaussian, Inc. and that
 it will not use this program in any manner prohibited above.
 ---------------------------------------------------------------
  

 Cite this work as:
 Gaussian 16, Revision C.01,
 M. J. Frisch, G. W. Trucks, H. B. Schlegel, G. E. Scuseria, 
 M. A. Robb, J. R. Cheeseman, G. Scalmani, V. Barone, 
 G. A. Petersson, H. Nakatsuji, X. Li, M. Caricato, A. V. Marenich, 
 J. Bloino, B. G. Janesko, R. Gomperts, B. Mennucci, H. P. Hratchian, 
 J. V. Ortiz, A. F. Izmaylov, J. L. Sonnenberg, D. Williams-Young, 
 F. Ding, F. Lipparini, F. Egidi, J. Goings, B. Peng, A. Petrone, 
 T. Henderson, D. Ranasinghe, V. G. Zakrzewski, J. Gao, N. Rega, 
 G. Zheng, W. Liang, M. Hada, M. Ehara, K. Toyota, R. Fukuda, 
 J. Hasegawa, M. Ishida, T. Nakajima, Y. Honda, O. Kitao, H. Nakai, 
 T. Vreven, K. Throssell, J. A. Montgomery, Jr., J. E. Peralta, 
 F. Ogliaro, M. J. Bearpark, J. J. Heyd, E. N. Brothers, K. N. Kudin, 
 V. N. Staroverov, T. A. Keith, R. Kobayashi, J. Normand, 
 K. Raghavachari, A. P. Rendell, J. C. Burant, S. S. Iyengar, 
 J. Tomasi, M. Cossi, J. M. Millam, M. Klene, C. Adamo, R. Cammi, 
 J. W. Ochterski, R. L. Martin, K. Morokuma, O. Farkas, 
 J. B. Foresman, and D. J. Fox, Gaussian, Inc., Wallingford CT, 2019.
 
 ******************************************
 Gaussian 16:  ES64L-G16RevC.01  3-Jul-2019
                22-Feb-2021 
 ******************************************
 %chk=XBDQKXXYIPTUBI-UHFFFAOYSA-N.chk
 %NProcShared=32
 Will use up to   32 processors via shared memory.
 -------------------------------------------------------------
 #P BP86/TZVP EmpiricalDispersion=GD3 SCRF=(Solvent=Water) Opt
 -------------------------------------------------------------
 1/18=20,19=15,26=3,38=1/1,3;
 2/9=110,12=2,17=6,18=5,40=1/2;
 3/5=19,7=101,11=2,25=1,30=1,70=2201,71=1,72=1,74=404,124=31/1,2,3;
 4//1;
 5/5=2,38=5,53=1/2;
 6/7=2,8=2,9=2,10=2,28=1/1;
 7//1,2,3,16;
 1/18=20,19=15,26=3/3(2);
 2/9=110/2;
 99//99;
 2/9=110/2;
 3/5=19,7=101,11=2,25=1,30=1,70=2205,71=1,72=1,74=404,124=31/1,2,3;
 4/5=5,16=3,69=1/1;
 5/5=2,38=5,53=1/2;
 7//1,2,3,16;
 1/18=20,19=15,26=3/3(-5);
 2/9=110/2;
 6/7=2,8=2,9=2,10=2,19=2,28=1/1;
 99/9=1/99;
 Leave Link    1 at Mon Feb 22 21:26:30 2021, MaxMem=           0 cpu:               2.3 elap:               0.1
 (Enter /sw/arch/RedHatEnterpriseServer7/EB_production/2019/software/Gaussian/g16.c01/l101.exe)
 -------------------------------------
 Particle #XBDQKXXYIPTUBI-UHFFFAOYSA-N
 -------------------------------------
 Symbolic Z-matrix:
 Charge =  0 Multiplicity = 1
 C                     0.21882  -0.28302   0.33315 
 C                     1.39847   0.19654  -0.54044 
 C                     1.97475   1.46773  -0.06085 
 O                     3.17213   1.53698   0.29727 
 O                     1.21664   2.58739  -0.01156 
 H                     0.54206  -0.43966   1.36499 
 H                    -0.16557  -1.22642  -0.05639 
 H                    -0.59208   0.4484    0.32107 
 H                     2.16629  -0.58193  -0.54603 
 H                     1.05074   0.33641  -1.56655 
 H                     1.60061   3.4277    0.31633 
 
 ITRead=  0  0  0  0  0  0  0  0  0  0  0
 MicOpt= -1 -1 -1 -1 -1 -1 -1 -1 -1 -1 -1
 NAtoms=     11 NQM=       11 NQMF=       0 NMMI=      0 NMMIF=      0
                NMic=       0 NMicF=      0.
                    Isotopes and Nuclear Properties:
 (Nuclear quadrupole moments (NQMom) in fm**2, nuclear magnetic moments (NMagM)
  in nuclear magnetons)

  Atom         1           2           3           4           5           6           7           8           9          10
 IAtWgt=          12          12          12          16          16           1           1           1           1           1
 AtmWgt=  12.0000000  12.0000000  12.0000000  15.9949146  15.9949146   1.0078250   1.0078250   1.0078250   1.0078250   1.0078250
 NucSpn=           0           0           0           0           0           1           1           1           1           1
 AtZEff=  -0.0000000  -0.0000000  -0.0000000  -0.0000000  -0.0000000  -0.0000000  -0.0000000  -0.0000000  -0.0000000  -0.0000000
 NQMom=    0.0000000   0.0000000   0.0000000   0.0000000   0.0000000   0.0000000   0.0000000   0.0000000   0.0000000   0.0000000
 NMagM=    0.0000000   0.0000000   0.0000000   0.0000000   0.0000000   2.7928460   2.7928460   2.7928460   2.7928460   2.7928460
 AtZNuc=   6.0000000   6.0000000   6.0000000   8.0000000   8.0000000   1.0000000   1.0000000   1.0000000   1.0000000   1.0000000

  Atom        11
 IAtWgt=           1
 AtmWgt=   1.0078250
 NucSpn=           1
 AtZEff=  -0.0000000
 NQMom=    0.0000000
 NMagM=    2.7928460
 AtZNuc=   1.0000000
 Leave Link  101 at Mon Feb 22 21:26:30 2021, MaxMem=   104857600 cpu:               2.5 elap:               0.1
 (Enter /sw/arch/RedHatEnterpriseServer7/EB_production/2019/software/Gaussian/g16.c01/l103.exe)

 GradGradGradGradGradGradGradGradGradGradGradGradGradGradGradGradGradGrad
 Berny optimization.
 Initialization pass.
                           ----------------------------
                           !    Initial Parameters    !
                           ! (Angstroms and Degrees)  !
 --------------------------                            --------------------------
 ! Name  Definition              Value          Derivative Info.                !
 --------------------------------------------------------------------------------
 ! R1    R(1,2)                  1.5443         estimate D2E/DX2                !
 ! R2    R(1,6)                  1.0926         estimate D2E/DX2                !
 ! R3    R(1,7)                  1.0906         estimate D2E/DX2                !
 ! R4    R(1,8)                  1.0921         estimate D2E/DX2                !
 ! R5    R(2,3)                  1.4758         estimate D2E/DX2                !
 ! R6    R(2,9)                  1.0934         estimate D2E/DX2                !
 ! R7    R(2,10)                 1.0924         estimate D2E/DX2                !
 ! R8    R(3,4)                  1.2517         estimate D2E/DX2                !
 ! R9    R(3,5)                  1.3531         estimate D2E/DX2                !
 ! R10   R(5,11)                 0.9803         estimate D2E/DX2                !
 ! A1    A(2,1,6)              110.6575         estimate D2E/DX2                !
 ! A2    A(2,1,7)              109.6212         estimate D2E/DX2                !
 ! A3    A(2,1,8)              110.6687         estimate D2E/DX2                !
 ! A4    A(6,1,7)              108.5161         estimate D2E/DX2                !
 ! A5    A(6,1,8)              109.0347         estimate D2E/DX2                !
 ! A6    A(7,1,8)              108.2808         estimate D2E/DX2                !
 ! A7    A(1,2,3)              112.454          estimate D2E/DX2                !
 ! A8    A(1,2,9)              108.5551         estimate D2E/DX2                !
 ! A9    A(1,2,10)             109.1456         estimate D2E/DX2                !
 ! A10   A(3,2,9)              109.9194         estimate D2E/DX2                !
 ! A11   A(3,2,10)             108.6177         estimate D2E/DX2                !
 ! A12   A(9,2,10)             108.0517         estimate D2E/DX2                !
 ! A13   A(2,3,4)              120.9416         estimate D2E/DX2                !
 ! A14   A(2,3,5)              120.3856         estimate D2E/DX2                !
 ! A15   A(4,3,5)              118.6703         estimate D2E/DX2                !
 ! A16   A(3,5,11)             120.1346         estimate D2E/DX2                !
 ! D1    D(6,1,2,3)            -59.9008         estimate D2E/DX2                !
 ! D2    D(6,1,2,9)             61.9413         estimate D2E/DX2                !
 ! D3    D(6,1,2,10)           179.4924         estimate D2E/DX2                !
 ! D4    D(7,1,2,3)           -179.5523         estimate D2E/DX2                !
 ! D5    D(7,1,2,9)            -57.7101         estimate D2E/DX2                !
 ! D6    D(7,1,2,10)            59.8409         estimate D2E/DX2                !
 ! D7    D(8,1,2,3)             61.0804         estimate D2E/DX2                !
 ! D8    D(8,1,2,9)           -177.0775         estimate D2E/DX2                !
 ! D9    D(8,1,2,10)           -59.5265         estimate D2E/DX2                !
 ! D10   D(1,2,3,4)            119.4473         estimate D2E/DX2                !
 ! D11   D(1,2,3,5)            -61.1381         estimate D2E/DX2                !
 ! D12   D(9,2,3,4)             -1.6165         estimate D2E/DX2                !
 ! D13   D(9,2,3,5)            177.7981         estimate D2E/DX2                !
 ! D14   D(10,2,3,4)          -119.6425         estimate D2E/DX2                !
 ! D15   D(10,2,3,5)            59.7721         estimate D2E/DX2                !
 ! D16   D(2,3,5,11)           179.3707         estimate D2E/DX2                !
 ! D17   D(4,3,5,11)            -1.2015         estimate D2E/DX2                !
 --------------------------------------------------------------------------------
 Trust Radius=3.00D-01 FncErr=1.00D-07 GrdErr=1.00D-06 EigMax=2.50D+02 EigMin=1.00D-04
 Number of steps in this run=     53 maximum allowed number of steps=    100.
 GradGradGradGradGradGradGradGradGradGradGradGradGradGradGradGradGradGrad

 Leave Link  103 at Mon Feb 22 21:26:30 2021, MaxMem=   104857600 cpu:               0.3 elap:               0.0
 (Enter /sw/arch/RedHatEnterpriseServer7/EB_production/2019/software/Gaussian/g16.c01/l202.exe)
                          Input orientation:                          
 ---------------------------------------------------------------------
 Center     Atomic      Atomic             Coordinates (Angstroms)
 Number     Number       Type             X           Y           Z
 ---------------------------------------------------------------------
      1          6           0        0.218820   -0.283020    0.333150
      2          6           0        1.398470    0.196540   -0.540440
      3          6           0        1.974750    1.467730   -0.060850
      4          8           0        3.172130    1.536980    0.297270
      5          8           0        1.216640    2.587390   -0.011560
      6          1           0        0.542060   -0.439660    1.364990
      7          1           0       -0.165570   -1.226420   -0.056390
      8          1           0       -0.592080    0.448400    0.321070
      9          1           0        2.166290   -0.581930   -0.546030
     10          1           0        1.050740    0.336410   -1.566550
     11          1           0        1.600610    3.427700    0.316330
 ---------------------------------------------------------------------
                    Distance matrix (angstroms):
                    1          2          3          4          5
     1  C    0.000000
     2  C    1.544251   0.000000
     3  C    2.510707   1.475815   0.000000
     4  O    3.469255   2.375796   1.251705   0.000000
     5  O    3.058386   2.455390   1.353070   2.241133   0.000000
     6  H    1.092572   2.183770   2.779165   3.458959   3.393078
     7  H    1.090642   2.169180   3.440848   4.347608   4.056804
     8  H    1.092099   2.183557   2.788102   3.918526   2.820884
     9  H    2.157532   1.093432   2.114993   2.492519   3.351430
    10  H    2.164404   1.092420   2.097811   3.068467   2.740881
    11  H    3.959680   3.348927   2.030696   2.458630   0.980340
                    6          7          8          9         10
     6  H    0.000000
     7  H    1.772019   0.000000
     8  H    1.778958   1.769014   0.000000
     9  H    2.512043   2.468337   3.069535   0.000000
    10  H    3.074893   2.490468   2.504897   1.768972   0.000000
    11  H    4.144477   4.991908   3.699208   4.140144   3.661102
                   11
    11  H    0.000000
 Stoichiometry    C3H6O2
 Framework group  C1[X(C3H6O2)]
 Deg. of freedom    27
 Full point group                 C1      NOp   1
 Largest Abelian subgroup         C1      NOp   1
 Largest concise Abelian subgroup C1      NOp   1
                         Standard orientation:                         
 ---------------------------------------------------------------------
 Center     Atomic      Atomic             Coordinates (Angstroms)
 Number     Number       Type             X           Y           Z
 ---------------------------------------------------------------------
      1          6           0        1.875781    0.214447   -0.350081
      2          6           0        0.791142   -0.465106    0.513908
      3          6           0       -0.575615   -0.115998    0.080170
      4          8           0       -1.373804   -0.999617   -0.305674
      5          8           0       -0.993556    1.170685    0.104053
      6          1           0        1.778676   -0.084905   -1.396347
      7          1           0        2.864211   -0.080446    0.004241
      8          1           0        1.797724    1.301621   -0.281951
      9          1           0        0.933153   -1.548049    0.462324
     10          1           0        0.916401   -0.156444    1.554302
     11          1           0       -1.899130    1.399618   -0.193590
 ---------------------------------------------------------------------
 Rotational constants (GHZ):           8.6561306           3.8772276           3.0331223
 Leave Link  202 at Mon Feb 22 21:26:30 2021, MaxMem=   104857600 cpu:               0.4 elap:               0.0
 (Enter /sw/arch/RedHatEnterpriseServer7/EB_production/2019/software/Gaussian/g16.c01/l301.exe)
 Standard basis: TZVP (5D, 7F)
 Ernie: Thresh=  0.10000D-02 Tol=  0.10000D-05 Strict=F.
 There are   136 symmetry adapted cartesian basis functions of A   symmetry.
 There are   131 symmetry adapted basis functions of A   symmetry.
   131 basis functions,   223 primitive gaussians,   136 cartesian basis functions
    20 alpha electrons       20 beta electrons
       nuclear repulsion energy       177.0821614325 Hartrees.
 IExCor=  404 DFT=T Ex=B Corr=P86 ExCW=0 ScaHFX=  0.000000
 ScaDFX=  1.000000  1.000000  1.000000  1.000000 ScalE2=  1.000000  1.000000
 IRadAn=      5 IRanWt=     -1 IRanGd=            0 ICorTp=0 IEmpDi=131
 NAtoms=   11 NActive=   11 NUniq=   11 SFac= 1.00D+00 NAtFMM=   60 NAOKFM=F Big=F
 Integral buffers will be    131072 words long.
 Raffenetti 2 integral format.
 Two-electron integral symmetry is turned on.
 R6Disp:  Grimme-D3 Dispersion energy=       -0.0065413444 Hartrees.
 Nuclear repulsion after empirical dispersion term =      177.0756200882 Hartrees.
 ------------------------------------------------------------------------------
 Polarizable Continuum Model (PCM)
 =================================
 Model                : PCM.
 Atomic radii         : UFF (Universal Force Field).
 Polarization charges : Total charges.
 Charge compensation  : None.
 Solution method      : On-the-fly selection.
 Cavity type          : Scaled VdW (van der Waals Surface) (Alpha=1.100).
 Cavity algorithm     : GePol (No added spheres)
                        Default sphere list used, NSphG=   11.
                        Lebedev-Laikov grids with approx.  5.0 points / Ang**2.
                        Smoothing algorithm: York/Karplus (Gamma=1.0000).
                        Polarization charges: spherical gaussians, with
                                              point-specific exponents (IZeta= 3).
                        Self-potential: point-specific (ISelfS= 7).
                        Self-field    : sphere-specific E.n sum rule (ISelfD= 2).
 1st derivatives      : Analytical E(r).r(x)/FMM algorithm (CHGder, D1EAlg=3).
                        Cavity 1st derivative terms included.
 Solvent              : Water, Eps=  78.355300 Eps(inf)=   1.777849
 ------------------------------------------------------------------------------
 Spheres list:
 ISph  on   Nord     Re0    Alpha      Xe            Ye            Ze
    1   C      1    1.9255  1.100      1.875781      0.214447     -0.350081
    2   C      2    1.9255  1.100      0.791142     -0.465106      0.513908
    3   C      3    1.9255  1.100     -0.575615     -0.115998      0.080170
    4   O      4    1.7500  1.100     -1.373804     -0.999617     -0.305674
    5   O      5    1.7500  1.100     -0.993556      1.170685      0.104053
    6   H      6    1.4430  1.100      1.778676     -0.084905     -1.396347
    7   H      7    1.4430  1.100      2.864211     -0.080446      0.004241
    8   H      8    1.4430  1.100      1.797724      1.301621     -0.281951
    9   H      9    1.4430  1.100      0.933153     -1.548049      0.462324
   10   H     10    1.4430  1.100      0.916401     -0.156444      1.554302
   11   H     11    1.4430  1.100     -1.899130      1.399618     -0.193590
 ------------------------------------------------------------------------------
 GePol: Number of generator spheres                  =      11
 GePol: Total number of spheres                      =      11
 GePol: Number of exposed spheres                    =      11 (100.00%)
 GePol: Number of points                             =    1003
 GePol: Average weight of points                     =       0.14
 GePol: Minimum weight of points                     =   0.23D-09
 GePol: Maximum weight of points                     =    0.20577
 GePol: Number of points with low weight             =      66
 GePol: Fraction of low-weight points (<1% of avg)   =       6.58%
 GePol: Cavity surface area                          =    137.056 Ang**2
 GePol: Cavity volume                                =    121.126 Ang**3
 Leave Link  301 at Mon Feb 22 21:26:30 2021, MaxMem=   104857600 cpu:               1.7 elap:               0.1
 (Enter /sw/arch/RedHatEnterpriseServer7/EB_production/2019/software/Gaussian/g16.c01/l302.exe)
 NPDir=0 NMtPBC=     1 NCelOv=     1 NCel=       1 NClECP=     1 NCelD=      1
         NCelK=      1 NCelE2=     1 NClLst=     1 CellRange=     0.0.
 One-electron integrals computed using PRISM.
 One-electron integral symmetry used in STVInt
 PrsmSu:  requested number of processors reduced to:  30 ShMem   1 Linda.
 NBasis=   131 RedAO= T EigKep=  3.51D-04  NBF=   131
 NBsUse=   131 1.00D-06 EigRej= -1.00D+00 NBFU=   131
 Precomputing XC quadrature grid using
 IXCGrd= 4 IRadAn=           5 IRanWt=          -1 IRanGd=           0 AccXCQ= 0.00D+00.
 Generated NRdTot=       0 NPtTot=           0 NUsed=           0 NTot=          32
 NSgBfM=   135   135   135   135   135 MxSgAt=    11 MxSgA2=    11.
 Leave Link  302 at Mon Feb 22 21:26:30 2021, MaxMem=   104857600 cpu:               4.8 elap:               0.2
 (Enter /sw/arch/RedHatEnterpriseServer7/EB_production/2019/software/Gaussian/g16.c01/l303.exe)
 DipDrv:  MaxL=1.
 Leave Link  303 at Mon Feb 22 21:26:30 2021, MaxMem=   104857600 cpu:               1.5 elap:               0.1
 (Enter /sw/arch/RedHatEnterpriseServer7/EB_production/2019/software/Gaussian/g16.c01/l401.exe)
 ExpMin= 9.52D-02 ExpMax= 2.70D+04 ExpMxC= 9.22D+02 IAcc=3 IRadAn=         5 AccDes= 0.00D+00
 Harris functional with IExCor=  404 and IRadAn=       5 diagonalized for initial guess.
 HarFok:  IExCor=  404 AccDes= 0.00D+00 IRadAn=         5 IDoV= 1 UseB2=F ITyADJ=14
 ICtDFT=  3500011 ScaDFX=  1.000000  1.000000  1.000000  1.000000
 FoFCou: FMM=F IPFlag=           0 FMFlag=      100000 FMFlg1=           0
         NFxFlg=           0 DoJE=T BraDBF=F KetDBF=T FulRan=T
         wScrn=  0.000000 ICntrl=       500 IOpCl=  0 I1Cent=   200000004 NGrid=           0
         NMat0=    1 NMatS0=      1 NMatT0=    0 NMatD0=    1 NMtDS0=    0 NMtDT0=    0
 Petite list used in FoFCou.
 Harris En= -268.614593640339    
 JPrj=0 DoOrth=F DoCkMO=F.
 Leave Link  401 at Mon Feb 22 21:26:31 2021, MaxMem=   104857600 cpu:               9.6 elap:               0.4
 (Enter /sw/arch/RedHatEnterpriseServer7/EB_production/2019/software/Gaussian/g16.c01/l502.exe)
 Keep J ints in memory in canonical form, NReq=68234207.
 FoFCou: FMM=F IPFlag=           0 FMFlag=           0 FMFlg1=           0
         NFxFlg=           0 DoJE=F BraDBF=F KetDBF=F FulRan=T
         wScrn=  0.000000 ICntrl=       600 IOpCl=  0 I1Cent=           0 NGrid=           0
         NMat0=    1 NMatS0=   8646 NMatT0=    0 NMatD0=    1 NMtDS0=    0 NMtDT0=    0
 Symmetry not used in FoFCou.
 Two-electron integral symmetry not used.
 Closed shell SCF:
 Using DIIS extrapolation, IDIIS=  1040.
 NGot=   104857600 LenX=    67433499 LenY=    67414562
 Requested convergence on RMS density matrix=1.00D-08 within 128 cycles.
 Requested convergence on MAX density matrix=1.00D-06.
 Requested convergence on             energy=1.00D-06.
 No special actions if energy rises.

 Cycle   1  Pass 1  IDiag  1:
 CoulSu:  requested number of processors reduced to:  31 ShMem   1 Linda.
 Inv3:  Mode=1 IEnd=     3018027.
 Iteration    1 A*A^-1 deviation from unit magnitude is 3.44D-15 for    233.
 Iteration    1 A*A^-1 deviation from orthogonality  is 1.38D-15 for    940     27.
 Iteration    1 A^-1*A deviation from unit magnitude is 3.44D-15 for    233.
 Iteration    1 A^-1*A deviation from orthogonality  is 1.89D-15 for    828    593.
 CoulSu:  requested number of processors reduced to:  31 ShMem   1 Linda.
 CoulSu:  requested number of processors reduced to:  31 ShMem   1 Linda.
 E= -268.322043633797    
 DIIS: error= 3.22D-02 at cycle   1 NSaved=   1.
 NSaved= 1 IEnMin= 1 EnMin= -268.322043633797     IErMin= 1 ErrMin= 3.22D-02
 ErrMax= 3.22D-02  0.00D+00 EMaxC= 1.00D-01 BMatC= 2.21D-01 BMatP= 2.21D-01
 IDIUse=3 WtCom= 6.78D-01 WtEn= 3.22D-01
 Coeff-Com:  0.100D+01
 Coeff-En:   0.100D+01
 Coeff:      0.100D+01
 Gap=     0.064 Goal=   None    Shift=    0.000
 GapD=    0.064 DampG=0.500 DampE=0.500 DampFc=0.2500 IDamp=-1.
 Damping current iteration by 2.50D-01
 RMSDP=1.12D-02 MaxDP=4.87D-01              OVMax= 3.05D-01

 Cycle   2  Pass 1  IDiag  1:
 E= -268.385912537921     Delta-E=       -0.063868904124 Rises=F Damp=T
 DIIS: error= 1.26D-02 at cycle   2 NSaved=   2.
 NSaved= 2 IEnMin= 2 EnMin= -268.385912537921     IErMin= 2 ErrMin= 1.26D-02
 ErrMax= 1.26D-02  0.00D+00 EMaxC= 1.00D-01 BMatC= 2.65D-02 BMatP= 2.21D-01
 IDIUse=3 WtCom= 8.74D-01 WtEn= 1.26D-01
 Coeff-Com: -0.309D+00 0.131D+01
 Coeff-En:   0.000D+00 0.100D+01
 Coeff:     -0.270D+00 0.127D+01
 Gap=     0.167 Goal=   None    Shift=    0.000
 RMSDP=2.10D-03 MaxDP=5.14D-02 DE=-6.39D-02 OVMax= 2.41D-01

 Cycle   3  Pass 1  IDiag  1:
 E= -268.456627999529     Delta-E=       -0.070715461608 Rises=F Damp=F
 DIIS: error= 2.54D-02 at cycle   3 NSaved=   3.
 NSaved= 3 IEnMin= 3 EnMin= -268.456627999529     IErMin= 2 ErrMin= 1.26D-02
 ErrMax= 2.54D-02  0.00D+00 EMaxC= 1.00D-01 BMatC= 6.12D-02 BMatP= 2.65D-02
 IDIUse=2 WtCom= 0.00D+00 WtEn= 1.00D+00
 EnCoef did   100 forward-backward iterations
 Coeff-En:   0.490D-01 0.725D-03 0.950D+00
 Coeff:      0.490D-01 0.725D-03 0.950D+00
 Gap=     0.119 Goal=   None    Shift=    0.000
 RMSDP=5.80D-03 MaxDP=1.81D-01 DE=-7.07D-02 OVMax= 3.95D-01

 Cycle   4  Pass 1  IDiag  1:
 E= -268.066573706634     Delta-E=        0.390054292895 Rises=F Damp=F
 DIIS: error= 7.97D-02 at cycle   4 NSaved=   4.
 NSaved= 4 IEnMin= 3 EnMin= -268.456627999529     IErMin= 2 ErrMin= 1.26D-02
 ErrMax= 7.97D-02  0.00D+00 EMaxC= 1.00D-01 BMatC= 5.58D-01 BMatP= 2.65D-02
 IDIUse=2 WtCom= 0.00D+00 WtEn= 1.00D+00
 Coeff-En:   0.000D+00 0.000D+00 0.837D+00 0.163D+00
 Coeff:      0.000D+00 0.000D+00 0.837D+00 0.163D+00
 Gap=     0.151 Goal=   None    Shift=    0.000
 RMSDP=3.71D-03 MaxDP=1.44D-01 DE= 3.90D-01 OVMax= 2.23D-01

 Cycle   5  Pass 1  IDiag  1:
 E= -268.464050954879     Delta-E=       -0.397477248245 Rises=F Damp=F
 DIIS: error= 2.36D-02 at cycle   5 NSaved=   5.
 NSaved= 5 IEnMin= 5 EnMin= -268.464050954879     IErMin= 2 ErrMin= 1.26D-02
 ErrMax= 2.36D-02  0.00D+00 EMaxC= 1.00D-01 BMatC= 5.44D-02 BMatP= 2.65D-02
 IDIUse=2 WtCom= 0.00D+00 WtEn= 1.00D+00
 Coeff-En:   0.000D+00 0.000D+00 0.472D+00 0.000D+00 0.528D+00
 Coeff:      0.000D+00 0.000D+00 0.472D+00 0.000D+00 0.528D+00
 Gap=     0.178 Goal=   None    Shift=    0.000
 RMSDP=1.23D-03 MaxDP=2.37D-02 DE=-3.97D-01 OVMax= 8.92D-02

 Cycle   6  Pass 1  IDiag  1:
 E= -268.506081933263     Delta-E=       -0.042030978384 Rises=F Damp=F
 DIIS: error= 2.09D-03 at cycle   6 NSaved=   6.
 NSaved= 6 IEnMin= 6 EnMin= -268.506081933263     IErMin= 6 ErrMin= 2.09D-03
 ErrMax= 2.09D-03  0.00D+00 EMaxC= 1.00D-01 BMatC= 8.09D-04 BMatP= 2.65D-02
 IDIUse=3 WtCom= 9.79D-01 WtEn= 2.09D-02
 Coeff-Com: -0.399D-01 0.713D-01 0.256D+00-0.423D-01 0.398D+00 0.357D+00
 Coeff-En:   0.000D+00 0.000D+00 0.000D+00 0.000D+00 0.000D+00 0.100D+01
 Coeff:     -0.391D-01 0.698D-01 0.251D+00-0.414D-01 0.389D+00 0.371D+00
 Gap=     0.179 Goal=   None    Shift=    0.000
 RMSDP=1.52D-04 MaxDP=3.97D-03 DE=-4.20D-02 OVMax= 7.47D-03

 Cycle   7  Pass 1  IDiag  1:
 E= -268.506611242765     Delta-E=       -0.000529309502 Rises=F Damp=F
 DIIS: error= 7.96D-04 at cycle   7 NSaved=   7.
 NSaved= 7 IEnMin= 7 EnMin= -268.506611242765     IErMin= 7 ErrMin= 7.96D-04
 ErrMax= 7.96D-04  0.00D+00 EMaxC= 1.00D-01 BMatC= 6.67D-05 BMatP= 8.09D-04
 IDIUse=3 WtCom= 9.92D-01 WtEn= 7.96D-03
 Coeff-Com: -0.489D-02 0.669D-02 0.738D-01-0.166D-01 0.128D+00 0.249D+00
 Coeff-Com:  0.564D+00
 Coeff-En:   0.000D+00 0.000D+00 0.000D+00 0.000D+00 0.000D+00 0.425D-01
 Coeff-En:   0.957D+00
 Coeff:     -0.485D-02 0.664D-02 0.732D-01-0.165D-01 0.127D+00 0.248D+00
 Coeff:      0.567D+00
 Gap=     0.179 Goal=   None    Shift=    0.000
 RMSDP=3.95D-05 MaxDP=9.10D-04 DE=-5.29D-04 OVMax= 2.01D-03

 Cycle   8  Pass 1  IDiag  1:
 E= -268.506656143521     Delta-E=       -0.000044900755 Rises=F Damp=F
 DIIS: error= 1.90D-04 at cycle   8 NSaved=   8.
 NSaved= 8 IEnMin= 8 EnMin= -268.506656143521     IErMin= 8 ErrMin= 1.90D-04
 ErrMax= 1.90D-04  0.00D+00 EMaxC= 1.00D-01 BMatC= 5.85D-06 BMatP= 6.67D-05
 IDIUse=3 WtCom= 9.98D-01 WtEn= 1.90D-03
 Coeff-Com:  0.574D-02-0.962D-02 0.944D-02-0.168D-02 0.129D-01 0.978D-01
 Coeff-Com:  0.298D+00 0.587D+00
 Coeff-En:   0.000D+00 0.000D+00 0.000D+00 0.000D+00 0.000D+00 0.000D+00
 Coeff-En:   0.000D+00 0.100D+01
 Coeff:      0.572D-02-0.961D-02 0.943D-02-0.168D-02 0.129D-01 0.976D-01
 Coeff:      0.297D+00 0.588D+00
 Gap=     0.179 Goal=   None    Shift=    0.000
 RMSDP=2.19D-05 MaxDP=7.95D-04 DE=-4.49D-05 OVMax= 6.59D-04

 Cycle   9  Pass 1  IDiag  1:
 E= -268.506661064662     Delta-E=       -0.000004921141 Rises=F Damp=F
 DIIS: error= 3.97D-05 at cycle   9 NSaved=   9.
 NSaved= 9 IEnMin= 9 EnMin= -268.506661064662     IErMin= 9 ErrMin= 3.97D-05
 ErrMax= 3.97D-05  0.00D+00 EMaxC= 1.00D-01 BMatC= 1.18D-07 BMatP= 5.85D-06
 IDIUse=1 WtCom= 1.00D+00 WtEn= 0.00D+00
 Coeff-Com:  0.179D-02-0.248D-02 0.193D-02-0.414D-03 0.169D-02 0.242D-01
 Coeff-Com:  0.789D-01 0.185D+00 0.710D+00
 Coeff:      0.179D-02-0.248D-02 0.193D-02-0.414D-03 0.169D-02 0.242D-01
 Coeff:      0.789D-01 0.185D+00 0.710D+00
 Gap=     0.179 Goal=   None    Shift=    0.000
 RMSDP=1.99D-06 MaxDP=2.39D-05 DE=-4.92D-06 OVMax= 1.00D-04

 Cycle  10  Pass 1  IDiag  1:
 E= -268.506661137768     Delta-E=       -0.000000073106 Rises=F Damp=F
 DIIS: error= 6.57D-06 at cycle  10 NSaved=  10.
 NSaved=10 IEnMin=10 EnMin= -268.506661137768     IErMin=10 ErrMin= 6.57D-06
 ErrMax= 6.57D-06  0.00D+00 EMaxC= 1.00D-01 BMatC= 1.01D-08 BMatP= 1.18D-07
 IDIUse=1 WtCom= 1.00D+00 WtEn= 0.00D+00
 Coeff-Com:  0.665D-03-0.809D-03 0.624D-03-0.136D-03 0.324D-03 0.736D-02
 Coeff-Com:  0.249D-01 0.601D-01 0.360D+00 0.547D+00
 Coeff:      0.665D-03-0.809D-03 0.624D-03-0.136D-03 0.324D-03 0.736D-02
 Coeff:      0.249D-01 0.601D-01 0.360D+00 0.547D+00
 Gap=     0.179 Goal=   None    Shift=    0.000
 RMSDP=5.98D-07 MaxDP=1.50D-05 DE=-7.31D-08 OVMax= 2.81D-05

 Cycle  11  Pass 1  IDiag  1:
 E= -268.506661145576     Delta-E=       -0.000000007808 Rises=F Damp=F
 DIIS: error= 1.76D-06 at cycle  11 NSaved=  11.
 NSaved=11 IEnMin=11 EnMin= -268.506661145576     IErMin=11 ErrMin= 1.76D-06
 ErrMax= 1.76D-06  0.00D+00 EMaxC= 1.00D-01 BMatC= 8.87D-10 BMatP= 1.01D-08
 IDIUse=1 WtCom= 1.00D+00 WtEn= 0.00D+00
 Coeff-Com:  0.150D-03-0.166D-03 0.984D-04-0.120D-04-0.201D-04 0.782D-03
 Coeff-Com:  0.293D-02 0.559D-02 0.879D-01 0.259D+00 0.644D+00
 Coeff:      0.150D-03-0.166D-03 0.984D-04-0.120D-04-0.201D-04 0.782D-03
 Coeff:      0.293D-02 0.559D-02 0.879D-01 0.259D+00 0.644D+00
 Gap=     0.179 Goal=   None    Shift=    0.000
 RMSDP=1.74D-07 MaxDP=2.62D-06 DE=-7.81D-09 OVMax= 6.71D-06

 Cycle  12  Pass 1  IDiag  1:
 E= -268.506661146332     Delta-E=       -0.000000000756 Rises=F Damp=F
 DIIS: error= 3.60D-07 at cycle  12 NSaved=  12.
 NSaved=12 IEnMin=12 EnMin= -268.506661146332     IErMin=12 ErrMin= 3.60D-07
 ErrMax= 3.60D-07  0.00D+00 EMaxC= 1.00D-01 BMatC= 2.08D-11 BMatP= 8.87D-10
 IDIUse=1 WtCom= 1.00D+00 WtEn= 0.00D+00
 Coeff-Com:  0.135D-04-0.880D-05 0.196D-04-0.279D-05 0.525D-05-0.761D-04
 Coeff-Com: -0.102D-03-0.943D-03 0.889D-02 0.462D-01 0.183D+00 0.763D+00
 Coeff:      0.135D-04-0.880D-05 0.196D-04-0.279D-05 0.525D-05-0.761D-04
 Coeff:     -0.102D-03-0.943D-03 0.889D-02 0.462D-01 0.183D+00 0.763D+00
 Gap=     0.179 Goal=   None    Shift=    0.000
 RMSDP=3.69D-08 MaxDP=7.60D-07 DE=-7.56D-10 OVMax= 1.05D-06

 Cycle  13  Pass 1  IDiag  1:
 E= -268.506661146349     Delta-E=       -0.000000000017 Rises=F Damp=F
 DIIS: error= 8.10D-08 at cycle  13 NSaved=  13.
 NSaved=13 IEnMin=13 EnMin= -268.506661146349     IErMin=13 ErrMin= 8.10D-08
 ErrMax= 8.10D-08  0.00D+00 EMaxC= 1.00D-01 BMatC= 6.53D-13 BMatP= 2.08D-11
 IDIUse=1 WtCom= 1.00D+00 WtEn= 0.00D+00
 Coeff-Com: -0.849D-06 0.197D-05 0.244D-05-0.355D-06 0.186D-05-0.328D-04
 Coeff-Com: -0.959D-04-0.342D-03-0.104D-02 0.102D-02 0.171D-01 0.175D+00
 Coeff-Com:  0.809D+00
 Coeff:     -0.849D-06 0.197D-05 0.244D-05-0.355D-06 0.186D-05-0.328D-04
 Coeff:     -0.959D-04-0.342D-03-0.104D-02 0.102D-02 0.171D-01 0.175D+00
 Coeff:      0.809D+00
 Gap=     0.179 Goal=   None    Shift=    0.000
 RMSDP=7.08D-09 MaxDP=1.16D-07 DE=-1.71D-11 OVMax= 3.05D-07

 CoulSu:  requested number of processors reduced to:  30 ShMem   1 Linda.
 Error on total polarization charges =  0.00925
 SCF Done:  E(RB-P86) =  -268.506661146     A.U. after   13 cycles
            NFock= 13  Conv=0.71D-08     -V/T= 2.0045
 KE= 2.673167878057D+02 PE=-9.832742739543D+02 EE= 2.703752049141D+02
 Leave Link  502 at Mon Feb 22 21:26:35 2021, MaxMem=   104857600 cpu:              96.3 elap:               4.0
 (Enter /sw/arch/RedHatEnterpriseServer7/EB_production/2019/software/Gaussian/g16.c01/l601.exe)
 Copying SCF densities to generalized density rwf, IOpCl= 0 IROHF=0.

 **********************************************************************

            Population analysis using the SCF Density.

 **********************************************************************

 Orbital symmetries:
       Occupied  (A) (A) (A) (A) (A) (A) (A) (A) (A) (A) (A) (A)
                 (A) (A) (A) (A) (A) (A) (A) (A)
       Virtual   (A) (A) (A) (A) (A) (A) (A) (A) (A) (A) (A) (A)
                 (A) (A) (A) (A) (A) (A) (A) (A) (A) (A) (A) (A)
                 (A) (A) (A) (A) (A) (A) (A) (A) (A) (A) (A) (A)
                 (A) (A) (A) (A) (A) (A) (A) (A) (A) (A) (A) (A)
                 (A) (A) (A) (A) (A) (A) (A) (A) (A) (A) (A) (A)
                 (A) (A) (A) (A) (A) (A) (A) (A) (A) (A) (A) (A)
                 (A) (A) (A) (A) (A) (A) (A) (A) (A) (A) (A) (A)
                 (A) (A) (A) (A) (A) (A) (A) (A) (A) (A) (A) (A)
                 (A) (A) (A) (A) (A) (A) (A) (A) (A) (A) (A) (A)
                 (A) (A) (A)
 The electronic state is 1-A.
 Alpha  occ. eigenvalues --  -18.82178 -18.75830 -10.03523  -9.91812  -9.89840
 Alpha  occ. eigenvalues --   -1.01697  -0.92274  -0.72832  -0.61756  -0.56802
 Alpha  occ. eigenvalues --   -0.45550  -0.43024  -0.41881  -0.39691  -0.36163
 Alpha  occ. eigenvalues --   -0.33577  -0.33082  -0.31990  -0.28470  -0.23326
 Alpha virt. eigenvalues --   -0.05378   0.01108   0.04775   0.06869   0.08133
 Alpha virt. eigenvalues --    0.09655   0.10393   0.12597   0.14619   0.15827
 Alpha virt. eigenvalues --    0.19032   0.19867   0.21767   0.23039   0.25014
 Alpha virt. eigenvalues --    0.28704   0.30199   0.31834   0.34986   0.36684
 Alpha virt. eigenvalues --    0.38413   0.39476   0.40495   0.41239   0.42601
 Alpha virt. eigenvalues --    0.43905   0.44619   0.46864   0.47732   0.50415
 Alpha virt. eigenvalues --    0.53725   0.55806   0.56248   0.58802   0.70730
 Alpha virt. eigenvalues --    0.75140   0.85925   1.03779   1.10227   1.18271
 Alpha virt. eigenvalues --    1.20450   1.22491   1.24685   1.26568   1.27932
 Alpha virt. eigenvalues --    1.30259   1.31668   1.34935   1.36791   1.39389
 Alpha virt. eigenvalues --    1.42916   1.47031   1.49597   1.49874   1.54588
 Alpha virt. eigenvalues --    1.57754   1.59023   1.69749   1.71534   1.72172
 Alpha virt. eigenvalues --    1.75920   1.77034   1.80847   1.89499   1.91030
 Alpha virt. eigenvalues --    2.03180   2.05511   2.08499   2.12469   2.17956
 Alpha virt. eigenvalues --    2.23188   2.24217   2.28218   2.31272   2.36257
 Alpha virt. eigenvalues --    2.40346   2.44094   2.50271   2.51629   2.52834
 Alpha virt. eigenvalues --    2.54059   2.55705   2.56733   2.57512   2.60087
 Alpha virt. eigenvalues --    2.62203   2.62725   2.65874   2.76027   2.76559
 Alpha virt. eigenvalues --    2.84791   2.89025   2.91977   2.99843   3.03564
 Alpha virt. eigenvalues --    3.07466   3.11878   3.16719   3.23656   3.24923
 Alpha virt. eigenvalues --    3.28573   3.30327   3.45830   3.81546   4.00652
 Alpha virt. eigenvalues --    4.18135  21.62691  21.77129  21.80158  43.02517
 Alpha virt. eigenvalues --   43.10355
          Condensed to atoms (all electrons):
               1          2          3          4          5          6
     1  C    5.146281   0.201442  -0.054268  -0.004813   0.010707   0.387613
     2  C    0.201442   5.460680   0.147299  -0.133472  -0.118402  -0.046766
     3  C   -0.054268   0.147299   4.840513   0.621514   0.309713   0.012203
     4  O   -0.004813  -0.133472   0.621514   8.001134  -0.130562   0.003050
     5  O    0.010707  -0.118402   0.309713  -0.130562   7.913651  -0.000970
     6  H    0.387613  -0.046766   0.012203   0.003050  -0.000970   0.553169
     7  H    0.398121  -0.029264   0.007251  -0.000509  -0.000267  -0.026317
     8  H    0.397792  -0.025265  -0.016779   0.000510   0.007133  -0.025646
     9  H   -0.032034   0.425923  -0.058190   0.010368   0.005458  -0.004913
    10  H   -0.043140   0.359910   0.001843   0.002981   0.003546   0.008589
    11  H   -0.000092   0.011213  -0.015891   0.002362   0.288338  -0.000194
               7          8          9         10         11
     1  C    0.398121   0.397792  -0.032034  -0.043140  -0.000092
     2  C   -0.029264  -0.025265   0.425923   0.359910   0.011213
     3  C    0.007251  -0.016779  -0.058190   0.001843  -0.015891
     4  O   -0.000509   0.000510   0.010368   0.002981   0.002362
     5  O   -0.000267   0.007133   0.005458   0.003546   0.288338
     6  H   -0.026317  -0.025646  -0.004913   0.008589  -0.000194
     7  H    0.521748  -0.019153  -0.002752  -0.007182   0.000046
     8  H   -0.019153   0.532389   0.006281  -0.003925  -0.000284
     9  H   -0.002752   0.006281   0.501379  -0.018882  -0.000397
    10  H   -0.007182  -0.003925  -0.018882   0.527672  -0.000483
    11  H    0.000046  -0.000284  -0.000397  -0.000483   0.380593
 Mulliken charges:
               1
     1  C   -0.407609
     2  C   -0.253298
     3  C    0.204791
     4  O   -0.372562
     5  O   -0.288346
     6  H    0.140182
     7  H    0.158277
     8  H    0.146948
     9  H    0.167759
    10  H    0.169070
    11  H    0.334787
 Sum of Mulliken charges =  -0.00000
 Mulliken charges with hydrogens summed into heavy atoms:
               1
     1  C    0.037798
     2  C    0.083531
     3  C    0.204791
     4  O   -0.372562
     5  O    0.046442
 Electronic spatial extent (au):  <R**2>=            440.0326
 Charge=             -0.0000 electrons
 Dipole moment (field-independent basis, Debye):
    X=              1.6739    Y=              2.0602    Z=              0.6870  Tot=              2.7420
 Quadrupole moment (field-independent basis, Debye-Ang):
   XX=            -28.1067   YY=            -32.5643   ZZ=            -29.9427
   XY=             -6.9926   XZ=              0.2138   YZ=             -1.9864
 Traceless Quadrupole moment (field-independent basis, Debye-Ang):
   XX=              2.0978   YY=             -2.3597   ZZ=              0.2619
   XY=             -6.9926   XZ=              0.2138   YZ=             -1.9864
 Octapole moment (field-independent basis, Debye-Ang**2):
  XXX=            -10.0960  YYY=              5.9788  ZZZ=              0.7090  XYY=             -2.4985
  XXY=             13.6303  XXZ=              1.0091  XZZ=             -1.5347  YZZ=              0.7174
  YYZ=             -0.3563  XYZ=              2.7659
 Hexadecapole moment (field-independent basis, Debye-Ang**3):
 XXXX=           -327.5307 YYYY=           -142.0734 ZZZZ=            -62.2026 XXXY=            -33.8197
 XXXZ=              4.7973 YYYX=            -17.2428 YYYZ=             -3.3095 ZZZX=              1.9095
 ZZZY=              1.1278 XXYY=            -73.8403 XXZZ=            -69.9134 YYZZ=            -36.5236
 XXYZ=             -4.5411 YYXZ=              2.1910 ZZXY=             -2.2305
 N-N= 1.770756200882D+02 E-N=-9.832742729883D+02  KE= 2.673167878057D+02
 No NMR shielding tensors so no spin-rotation constants.
 Leave Link  601 at Mon Feb 22 21:26:35 2021, MaxMem=   104857600 cpu:               4.3 elap:               0.2
 (Enter /sw/arch/RedHatEnterpriseServer7/EB_production/2019/software/Gaussian/g16.c01/l701.exe)
 ... and contract with generalized density number  0.
 Compute integral first derivatives.
 R6Disp: Adding Grimme-D3 dispersion energy 1st derivatives to the gradient.
 PrsmSu:  requested number of processors reduced to:  30 ShMem   1 Linda.
 D1PCM: PCM CHGder 1st derivatives, ID1Alg=3 FixD1E=F DoIter=F DoCFld=F I1PDM=0.
 GePol: Maximum number of non-zero 1st derivatives   =     214
 CoulSu:  requested number of processors reduced to:  29 ShMem   1 Linda.
 CoulSu:  requested number of processors reduced to:  30 ShMem   1 Linda.
 Leave Link  701 at Mon Feb 22 21:26:36 2021, MaxMem=   104857600 cpu:              15.3 elap:               0.5
 (Enter /sw/arch/RedHatEnterpriseServer7/EB_production/2019/software/Gaussian/g16.c01/l702.exe)
 L702 exits ... SP integral derivatives will be done elsewhere.
 Leave Link  702 at Mon Feb 22 21:26:36 2021, MaxMem=   104857600 cpu:               0.6 elap:               0.0
 (Enter /sw/arch/RedHatEnterpriseServer7/EB_production/2019/software/Gaussian/g16.c01/l703.exe)
 Integral derivatives from FoFJK, PRISM(SPDF).
 Compute integral first derivatives, UseDBF=F ICtDFT=           0.
 Calling FoFJK, ICntrl=      2527 FMM=F ISym2X=0 I1Cent= 0 IOpClX= 0 NMat=1 NMatS=1 NMatT=0.
 FoFJK:  IHMeth= 1 ICntrl=    2527 DoSepK=F KAlg= 0 I1Cent=           0 FoldK=F
 IRaf=         0 NMat=       1 IRICut=       1 DoRegI=T DoRafI=F ISym2E= 0 IDoP0=0 IntGTp=1.
 FoFCou: FMM=F IPFlag=           0 FMFlag=      100000 FMFlg1=         800
         NFxFlg=           0 DoJE=F BraDBF=F KetDBF=F FulRan=T
         wScrn=  0.000000 ICntrl=      2527 IOpCl=  0 I1Cent=           0 NGrid=           0
         NMat0=    1 NMatS0=      1 NMatT0=    0 NMatD0=    1 NMtDS0=    0 NMtDT0=    0
 Symmetry not used in FoFCou.
 Leave Link  703 at Mon Feb 22 21:26:37 2021, MaxMem=   104857600 cpu:              14.2 elap:               0.5
 (Enter /sw/arch/RedHatEnterpriseServer7/EB_production/2019/software/Gaussian/g16.c01/l716.exe)
 Dipole        = 6.58571186D-01 8.10557967D-01 2.70285636D-01
 ***** Axes restored to original set *****
 -------------------------------------------------------------------
 Center     Atomic                   Forces (Hartrees/Bohr)
 Number     Number              X              Y              Z
 -------------------------------------------------------------------
      1        6           0.001084256    0.003492608   -0.003855213
      2        6          -0.023892418   -0.007520134    0.000264105
      3        6           0.068568763    0.030937621    0.024153657
      4        8          -0.021308976   -0.004138717   -0.006065912
      5        8          -0.037152547   -0.012536635   -0.013161286
      6        1           0.000715780   -0.000481985    0.004237472
      7        1          -0.001844845   -0.004606647   -0.001340141
      8        1          -0.003628988    0.002522864    0.001198724
      9        1           0.005766833    0.004276901   -0.000205240
     10        1          -0.002584167    0.000571454   -0.006393296
     11        1           0.014276309   -0.012517331    0.001167130
 -------------------------------------------------------------------
 Cartesian Forces:  Max     0.068568763 RMS     0.017095129
 Leave Link  716 at Mon Feb 22 21:26:37 2021, MaxMem=   104857600 cpu:               1.7 elap:               0.1
 (Enter /sw/arch/RedHatEnterpriseServer7/EB_production/2019/software/Gaussian/g16.c01/l103.exe)

 GradGradGradGradGradGradGradGradGradGradGradGradGradGradGradGradGradGrad
 Berny optimization.
 FormGI is forming the generalized inverse of G from B-inverse, IUseBI=4.
 Internal  Forces:  Max     0.034728187 RMS     0.009625683
 Search for a local minimum.
 Step number   1 out of a maximum of   53
 All quantities printed in internal units (Hartrees-Bohrs-Radians)
 RMS Force = .96257D-02 SwitMx=.10000D-02 MixMth= 1
 Mixed Optimization -- RFO/linear search
 Second derivative matrix not updated -- first step.
 ITU=  0
     Eigenvalues ---    0.00230   0.01086   0.01383   0.02313   0.04236
     Eigenvalues ---    0.05482   0.05494   0.05633   0.09417   0.12843
     Eigenvalues ---    0.16000   0.16000   0.16000   0.16000   0.21997
     Eigenvalues ---    0.24999   0.25000   0.28146   0.34419   0.34517
     Eigenvalues ---    0.34534   0.34571   0.34739   0.35053   0.51319
     Eigenvalues ---    0.54373   0.82610
 RFO step:  Lambda=-1.59275765D-02 EMin= 2.30000000D-03
 Linear search not attempted -- first point.
 Iteration  1 RMS(Cart)=  0.05400700 RMS(Int)=  0.00255386
 Iteration  2 RMS(Cart)=  0.00323921 RMS(Int)=  0.00009104
 Iteration  3 RMS(Cart)=  0.00000349 RMS(Int)=  0.00009099
 Iteration  4 RMS(Cart)=  0.00000000 RMS(Int)=  0.00009099
 ITry= 1 IFail=0 DXMaxC= 2.44D-01 DCOld= 1.00D+10 DXMaxT= 3.00D-01 DXLimC= 3.00D+00 Rises=F
 Variable       Old X    -DE/DX   Delta X   Delta X   Delta X     New X
                                 (Linear)    (Quad)   (Total)
    R1        2.91821   0.00266   0.00000   0.00893   0.00893   2.92714
    R2        2.06466   0.00428   0.00000   0.01186   0.01186   2.07652
    R3        2.06102   0.00511   0.00000   0.01408   0.01408   2.07509
    R4        2.06377   0.00437   0.00000   0.01209   0.01209   2.07586
    R5        2.78889   0.01300   0.00000   0.03549   0.03549   2.82437
    R6        2.06629   0.00101   0.00000   0.00280   0.00280   2.06909
    R7        2.06437   0.00690   0.00000   0.01910   0.01910   2.08347
    R8        2.36538  -0.02235   0.00000  -0.02654  -0.02654   2.33884
    R9        2.55693  -0.00835   0.00000  -0.01492  -0.01492   2.54201
   R10        1.85257  -0.00475   0.00000  -0.00897  -0.00897   1.84360
    A1        1.93134   0.00024   0.00000   0.00001   0.00001   1.93134
    A2        1.91325   0.00028   0.00000   0.00233   0.00231   1.91556
    A3        1.93153   0.00158   0.00000   0.00962   0.00961   1.94114
    A4        1.89396  -0.00046   0.00000  -0.00387  -0.00387   1.89010
    A5        1.90301  -0.00117   0.00000  -0.00798  -0.00798   1.89504
    A6        1.88986  -0.00054   0.00000  -0.00042  -0.00046   1.88940
    A7        1.96269   0.00227   0.00000   0.00910   0.00918   1.97187
    A8        1.89464   0.00496   0.00000   0.03816   0.03825   1.93290
    A9        1.90495  -0.00193   0.00000  -0.00424  -0.00431   1.90064
   A10        1.91846  -0.00634   0.00000  -0.05057  -0.05060   1.86785
   A11        1.89574   0.00074   0.00000   0.00495   0.00488   1.90061
   A12        1.88586   0.00023   0.00000   0.00245   0.00209   1.88795
   A13        2.11083   0.01410   0.00000   0.05311   0.05298   2.16380
   A14        2.10112  -0.03473   0.00000  -0.13051  -0.13065   1.97048
   A15        2.07119   0.02063   0.00000   0.07767   0.07753   2.14872
   A16        2.09674  -0.03412   0.00000  -0.19397  -0.19397   1.90278
    D1       -1.04547   0.00139   0.00000   0.01366   0.01364  -1.03183
    D2        1.08108  -0.00169   0.00000  -0.01776  -0.01779   1.06329
    D3        3.13273   0.00031   0.00000   0.00443   0.00448   3.13721
    D4       -3.13378   0.00163   0.00000   0.01696   0.01695  -3.11682
    D5       -1.00723  -0.00145   0.00000  -0.01446  -0.01448  -1.02171
    D6        1.04442   0.00056   0.00000   0.00773   0.00779   1.05222
    D7        1.06605   0.00114   0.00000   0.01003   0.01000   1.07605
    D8       -3.09059  -0.00195   0.00000  -0.02140  -0.02144  -3.11202
    D9       -1.03893   0.00006   0.00000   0.00080   0.00084  -1.03809
   D10        2.08475   0.00085   0.00000  -0.00949  -0.00952   2.07523
   D11       -1.06706   0.00176   0.00000   0.02109   0.02096  -1.04610
   D12       -0.02821  -0.00255   0.00000  -0.02877  -0.02856  -0.05678
   D13        3.10316  -0.00163   0.00000   0.00180   0.00192   3.10508
   D14       -2.08816   0.00038   0.00000  -0.00561  -0.00564  -2.09380
   D15        1.04322   0.00129   0.00000   0.02497   0.02484   1.06806
   D16        3.13061  -0.00039   0.00000  -0.01382  -0.01396   3.11665
   D17       -0.02097   0.00048   0.00000   0.01596   0.01609  -0.00488
         Item               Value     Threshold  Converged?
 Maximum Force            0.034728     0.000450     NO 
 RMS     Force            0.009626     0.000300     NO 
 Maximum Displacement     0.243814     0.001800     NO 
 RMS     Displacement     0.056091     0.001200     NO 
 Predicted change in Energy=-8.561293D-03
 Lowest energy point so far.  Saving SCF results.
 GradGradGradGradGradGradGradGradGradGradGradGradGradGradGradGradGradGrad

 Leave Link  103 at Mon Feb 22 21:26:37 2021, MaxMem=   104857600 cpu:               0.8 elap:               0.1
 (Enter /sw/arch/RedHatEnterpriseServer7/EB_production/2019/software/Gaussian/g16.c01/l202.exe)
                          Input orientation:                          
 ---------------------------------------------------------------------
 Center     Atomic      Atomic             Coordinates (Angstroms)
 Number     Number       Type             X           Y           Z
 ---------------------------------------------------------------------
      1          6           0        0.213193   -0.260489    0.335359
      2          6           0        1.401346    0.207874   -0.541142
      3          6           0        2.019111    1.479237   -0.055538
      4          8           0        3.197004    1.580090    0.310797
      5          8           0        1.151913    2.507317   -0.032905
      6          1           0        0.536638   -0.420834    1.373210
      7          1           0       -0.183155   -1.208264   -0.052500
      8          1           0       -0.599006    0.479119    0.332209
      9          1           0        2.193464   -0.547865   -0.556644
     10          1           0        1.046460    0.355255   -1.574533
     11          1           0        1.605891    3.298679    0.312677
 ---------------------------------------------------------------------
                    Distance matrix (angstroms):
                    1          2          3          4          5
     1  C    0.000000
     2  C    1.548976   0.000000
     3  C    2.537871   1.494594   0.000000
     4  O    3.505918   2.415194   1.237660   0.000000
     5  O    2.945770   2.368112   1.345173   2.271624   0.000000
     6  H    1.098846   2.192655   2.801664   3.494276   3.306023
     7  H    1.098091   2.180564   3.474571   4.396859   3.948206
     8  H    1.098497   2.199483   2.829333   3.952504   2.704185
     9  H    2.190829   1.094913   2.095388   2.507535   3.270056
    10  H    2.172824   1.102525   2.125261   3.111193   2.649360
    11  H    3.822015   3.213086   1.901763   2.342048   0.975591
                    6          7          8          9         10
     6  H    0.000000
     7  H    1.780673   0.000000
     8  H    1.784176   1.779942   0.000000
     9  H    2.546674   2.517659   3.105261   0.000000
    10  H    3.090537   2.504621   2.521620   1.779702   0.000000
    11  H    4.012831   4.862774   3.579368   3.987087   3.540942
                   11
    11  H    0.000000
 Stoichiometry    C3H6O2
 Framework group  C1[X(C3H6O2)]
 Deg. of freedom    27
 Full point group                 C1      NOp   1
 RotChk:  IX=0 Diff= 7.29D-02
 Largest Abelian subgroup         C1      NOp   1
 Largest concise Abelian subgroup C1      NOp   1
                         Standard orientation:                         
 ---------------------------------------------------------------------
 Center     Atomic      Atomic             Coordinates (Angstroms)
 Number     Number       Type             X           Y           Z
 ---------------------------------------------------------------------
      1          6           0        1.868063    0.134246   -0.358049
      2          6           0        0.755873   -0.494726    0.517596
      3          6           0       -0.620100   -0.112636    0.076557
      4          8           0       -1.474194   -0.923087   -0.304883
      5          8           0       -0.831440    1.215344    0.112559
      6          1           0        1.755702   -0.172859   -1.407107
      7          1           0        2.852421   -0.200208   -0.004519
      8          1           0        1.839546    1.231302   -0.309570
      9          1           0        0.810118   -1.587877    0.487396
     10          1           0        0.898498   -0.172114    1.562173
     11          1           0       -1.734241    1.402396   -0.206406
 ---------------------------------------------------------------------
 Rotational constants (GHZ):           8.7187270           3.9112190           3.0700683
 Leave Link  202 at Mon Feb 22 21:26:37 2021, MaxMem=   104857600 cpu:               0.8 elap:               0.1
 (Enter /sw/arch/RedHatEnterpriseServer7/EB_production/2019/software/Gaussian/g16.c01/l301.exe)
 Standard basis: TZVP (5D, 7F)
 Ernie: Thresh=  0.10000D-02 Tol=  0.10000D-05 Strict=F.
 There are   136 symmetry adapted cartesian basis functions of A   symmetry.
 There are   131 symmetry adapted basis functions of A   symmetry.
   131 basis functions,   223 primitive gaussians,   136 cartesian basis functions
    20 alpha electrons       20 beta electrons
       nuclear repulsion energy       177.6446481118 Hartrees.
 IExCor=  404 DFT=T Ex=B Corr=P86 ExCW=0 ScaHFX=  0.000000
 ScaDFX=  1.000000  1.000000  1.000000  1.000000 ScalE2=  1.000000  1.000000
 IRadAn=      5 IRanWt=     -1 IRanGd=            0 ICorTp=0 IEmpDi=131
 NAtoms=   11 NActive=   11 NUniq=   11 SFac= 1.00D+00 NAtFMM=   60 NAOKFM=F Big=F
 Integral buffers will be    131072 words long.
 Raffenetti 2 integral format.
 Two-electron integral symmetry is turned on.
 R6Disp:  Grimme-D3 Dispersion energy=       -0.0066709911 Hartrees.
 Nuclear repulsion after empirical dispersion term =      177.6379771206 Hartrees.
 ------------------------------------------------------------------------------
 Polarizable Continuum Model (PCM)
 =================================
 Model                : PCM.
 Atomic radii         : UFF (Universal Force Field).
 Polarization charges : Total charges.
 Charge compensation  : None.
 Solution method      : On-the-fly selection.
 Cavity type          : Scaled VdW (van der Waals Surface) (Alpha=1.100).
 Cavity algorithm     : GePol (No added spheres)
                        Default sphere list used, NSphG=   11.
                        Lebedev-Laikov grids with approx.  5.0 points / Ang**2.
                        Smoothing algorithm: York/Karplus (Gamma=1.0000).
                        Polarization charges: spherical gaussians, with
                                              point-specific exponents (IZeta= 3).
                        Self-potential: point-specific (ISelfS= 7).
                        Self-field    : sphere-specific E.n sum rule (ISelfD= 2).
 1st derivatives      : Analytical E(r).r(x)/FMM algorithm (CHGder, D1EAlg=3).
                        Cavity 1st derivative terms included.
 Solvent              : Water, Eps=  78.355300 Eps(inf)=   1.777849
 ------------------------------------------------------------------------------
 Spheres list:
 ISph  on   Nord     Re0    Alpha      Xe            Ye            Ze
    1   C      1    1.9255  1.100      1.868063      0.134246     -0.358049
    2   C      2    1.9255  1.100      0.755873     -0.494726      0.517596
    3   C      3    1.9255  1.100     -0.620100     -0.112636      0.076557
    4   O      4    1.7500  1.100     -1.474194     -0.923087     -0.304883
    5   O      5    1.7500  1.100     -0.831440      1.215344      0.112559
    6   H      6    1.4430  1.100      1.755702     -0.172859     -1.407107
    7   H      7    1.4430  1.100      2.852421     -0.200208     -0.004519
    8   H      8    1.4430  1.100      1.839546      1.231302     -0.309570
    9   H      9    1.4430  1.100      0.810118     -1.587877      0.487396
   10   H     10    1.4430  1.100      0.898498     -0.172114      1.562173
   11   H     11    1.4430  1.100     -1.734241      1.402396     -0.206406
 ------------------------------------------------------------------------------
 GePol: Number of generator spheres                  =      11
 GePol: Total number of spheres                      =      11
 GePol: Number of exposed spheres                    =      11 (100.00%)
 GePol: Number of points                             =    1000
 GePol: Average weight of points                     =       0.14
 GePol: Minimum weight of points                     =   0.52D-09
 GePol: Maximum weight of points                     =    0.20577
 GePol: Number of points with low weight             =      63
 GePol: Fraction of low-weight points (<1% of avg)   =       6.30%
 GePol: Cavity surface area                          =    136.046 Ang**2
 GePol: Cavity volume                                =    120.758 Ang**3
 Leave Link  301 at Mon Feb 22 21:26:37 2021, MaxMem=   104857600 cpu:               1.7 elap:               0.1
 (Enter /sw/arch/RedHatEnterpriseServer7/EB_production/2019/software/Gaussian/g16.c01/l302.exe)
 NPDir=0 NMtPBC=     1 NCelOv=     1 NCel=       1 NClECP=     1 NCelD=      1
         NCelK=      1 NCelE2=     1 NClLst=     1 CellRange=     0.0.
 One-electron integrals computed using PRISM.
 One-electron integral symmetry used in STVInt
 PrsmSu:  requested number of processors reduced to:  30 ShMem   1 Linda.
 NBasis=   131 RedAO= T EigKep=  3.64D-04  NBF=   131
 NBsUse=   131 1.00D-06 EigRej= -1.00D+00 NBFU=   131
 Precomputing XC quadrature grid using
 IXCGrd= 4 IRadAn=           5 IRanWt=          -1 IRanGd=           0 AccXCQ= 0.00D+00.
 Generated NRdTot=       0 NPtTot=           0 NUsed=           0 NTot=          32
 NSgBfM=   135   135   135   135   135 MxSgAt=    11 MxSgA2=    11.
 Leave Link  302 at Mon Feb 22 21:26:37 2021, MaxMem=   104857600 cpu:               5.5 elap:               0.2
 (Enter /sw/arch/RedHatEnterpriseServer7/EB_production/2019/software/Gaussian/g16.c01/l303.exe)
 DipDrv:  MaxL=1.
 Leave Link  303 at Mon Feb 22 21:26:37 2021, MaxMem=   104857600 cpu:               2.1 elap:               0.1
 (Enter /sw/arch/RedHatEnterpriseServer7/EB_production/2019/software/Gaussian/g16.c01/l401.exe)
 Initial guess from the checkpoint file:  "XBDQKXXYIPTUBI-UHFFFAOYSA-N.chk"
 B after Tr=    -0.000000   -0.000000   -0.000000
         Rot=    0.999528    0.000933   -0.002239    0.030609 Ang=   3.52 deg.
 Guess basis will be translated and rotated to current coordinates.
 JPrj=2 DoOrth=T DoCkMO=T.
 Generating alternative initial guess.
 ExpMin= 9.52D-02 ExpMax= 2.70D+04 ExpMxC= 9.22D+02 IAcc=3 IRadAn=         5 AccDes= 0.00D+00
 Harris functional with IExCor=  404 and IRadAn=       5 diagonalized for initial guess.
 HarFok:  IExCor=  404 AccDes= 0.00D+00 IRadAn=         5 IDoV= 1 UseB2=F ITyADJ=14
 ICtDFT=  3500011 ScaDFX=  1.000000  1.000000  1.000000  1.000000
 FoFCou: FMM=F IPFlag=           0 FMFlag=      100000 FMFlg1=           0
         NFxFlg=           0 DoJE=T BraDBF=F KetDBF=T FulRan=T
         wScrn=  0.000000 ICntrl=       500 IOpCl=  0 I1Cent=   200000004 NGrid=           0
         NMat0=    1 NMatS0=      1 NMatT0=    0 NMatD0=    1 NMtDS0=    0 NMtDT0=    0
 Petite list used in FoFCou.
 Harris En= -268.617925699993    
 Leave Link  401 at Mon Feb 22 21:26:38 2021, MaxMem=   104857600 cpu:               7.8 elap:               0.3
 (Enter /sw/arch/RedHatEnterpriseServer7/EB_production/2019/software/Gaussian/g16.c01/l502.exe)
 Keep J ints in memory in canonical form, NReq=68234207.
 FoFCou: FMM=F IPFlag=           0 FMFlag=           0 FMFlg1=           0
         NFxFlg=           0 DoJE=F BraDBF=F KetDBF=F FulRan=T
         wScrn=  0.000000 ICntrl=       600 IOpCl=  0 I1Cent=           0 NGrid=           0
         NMat0=    1 NMatS0=   8646 NMatT0=    0 NMatD0=    1 NMtDS0=    0 NMtDT0=    0
 Symmetry not used in FoFCou.
 Two-electron integral symmetry not used.
 Closed shell SCF:
 Using DIIS extrapolation, IDIIS=  1040.
 NGot=   104857600 LenX=    67433499 LenY=    67414562
 Requested convergence on RMS density matrix=1.00D-08 within 128 cycles.
 Requested convergence on MAX density matrix=1.00D-06.
 Requested convergence on             energy=1.00D-06.
 No special actions if energy rises.

 Cycle   1  Pass 1  IDiag  1:
 CoulSu:  requested number of processors reduced to:  31 ShMem   1 Linda.
 Inv3:  Mode=1 IEnd=     3000000.
 Iteration    1 A*A^-1 deviation from unit magnitude is 3.11D-15 for    637.
 Iteration    1 A*A^-1 deviation from orthogonality  is 1.50D-15 for    869    249.
 Iteration    1 A^-1*A deviation from unit magnitude is 3.11D-15 for    550.
 Iteration    1 A^-1*A deviation from orthogonality  is 1.78D-15 for    463     25.
 CoulSu:  requested number of processors reduced to:  31 ShMem   1 Linda.
 CoulSu:  requested number of processors reduced to:  31 ShMem   1 Linda.
 E= -268.510782111221    
 DIIS: error= 4.46D-03 at cycle   1 NSaved=   1.
 NSaved= 1 IEnMin= 1 EnMin= -268.510782111221     IErMin= 1 ErrMin= 4.46D-03
 ErrMax= 4.46D-03  0.00D+00 EMaxC= 1.00D-01 BMatC= 3.65D-03 BMatP= 3.65D-03
 IDIUse=3 WtCom= 9.55D-01 WtEn= 4.46D-02
 Coeff-Com:  0.100D+01
 Coeff-En:   0.100D+01
 Coeff:      0.100D+01
 Gap=     0.587 Goal=   None    Shift=    0.000
 GapD=    0.587 DampG=2.000 DampE=1.000 DampFc=2.0000 IDamp=-1.
 RMSDP=9.46D-04 MaxDP=1.32D-02              OVMax= 2.53D-02

 Cycle   2  Pass 1  IDiag  1:
 E= -268.514076070404     Delta-E=       -0.003293959184 Rises=F Damp=F
 DIIS: error= 5.00D-03 at cycle   2 NSaved=   2.
 NSaved= 2 IEnMin= 2 EnMin= -268.514076070404     IErMin= 1 ErrMin= 4.46D-03
 ErrMax= 5.00D-03  0.00D+00 EMaxC= 1.00D-01 BMatC= 1.85D-03 BMatP= 3.65D-03
 IDIUse=3 WtCom= 9.50D-01 WtEn= 5.00D-02
 Coeff-Com:  0.369D+00 0.631D+00
 Coeff-En:   0.000D+00 0.100D+01
 Coeff:      0.350D+00 0.650D+00
 Gap=     0.185 Goal=   None    Shift=    0.000
 RMSDP=6.48D-04 MaxDP=2.06D-02 DE=-3.29D-03 OVMax= 4.16D-02

 Cycle   3  Pass 1  IDiag  1:
 E= -268.512200558443     Delta-E=        0.001875511961 Rises=F Damp=F
 DIIS: error= 7.55D-03 at cycle   3 NSaved=   3.
 NSaved= 3 IEnMin= 2 EnMin= -268.514076070404     IErMin= 1 ErrMin= 4.46D-03
 ErrMax= 7.55D-03  0.00D+00 EMaxC= 1.00D-01 BMatC= 4.33D-03 BMatP= 1.85D-03
 IDIUse=3 WtCom= 1.03D-01 WtEn= 8.97D-01
 Coeff-Com:  0.268D-01 0.594D+00 0.380D+00
 Coeff-En:   0.000D+00 0.647D+00 0.353D+00
 Coeff:      0.277D-02 0.642D+00 0.356D+00
 Gap=     0.191 Goal=   None    Shift=    0.000
 RMSDP=3.50D-04 MaxDP=1.13D-02 DE= 1.88D-03 OVMax= 2.28D-02

 Cycle   4  Pass 1  IDiag  1:
 E= -268.515316279810     Delta-E=       -0.003115721367 Rises=F Damp=F
 DIIS: error= 1.07D-03 at cycle   4 NSaved=   4.
 NSaved= 4 IEnMin= 4 EnMin= -268.515316279810     IErMin= 4 ErrMin= 1.07D-03
 ErrMax= 1.07D-03  0.00D+00 EMaxC= 1.00D-01 BMatC= 1.14D-04 BMatP= 1.85D-03
 IDIUse=3 WtCom= 9.89D-01 WtEn= 1.07D-02
 Coeff-Com:  0.178D-02 0.349D+00 0.161D+00 0.489D+00
 Coeff-En:   0.000D+00 0.721D-01 0.000D+00 0.928D+00
 Coeff:      0.176D-02 0.346D+00 0.159D+00 0.493D+00
 Gap=     0.192 Goal=   None    Shift=    0.000
 RMSDP=8.30D-05 MaxDP=2.69D-03 DE=-3.12D-03 OVMax= 3.19D-03

 Cycle   5  Pass 1  IDiag  1:
 E= -268.515404279082     Delta-E=       -0.000087999272 Rises=F Damp=F
 DIIS: error= 1.06D-04 at cycle   5 NSaved=   5.
 NSaved= 5 IEnMin= 5 EnMin= -268.515404279082     IErMin= 5 ErrMin= 1.06D-04
 ErrMax= 1.06D-04  0.00D+00 EMaxC= 1.00D-01 BMatC= 1.61D-06 BMatP= 1.14D-04
 IDIUse=3 WtCom= 9.99D-01 WtEn= 1.06D-03
 Coeff-Com: -0.231D-03 0.109D+00 0.472D-01 0.222D+00 0.623D+00
 Coeff-En:   0.000D+00 0.000D+00 0.000D+00 0.000D+00 0.100D+01
 Coeff:     -0.230D-03 0.109D+00 0.471D-01 0.221D+00 0.623D+00
 Gap=     0.192 Goal=   None    Shift=    0.000
 RMSDP=1.09D-05 MaxDP=2.98D-04 DE=-8.80D-05 OVMax= 3.08D-04

 Cycle   6  Pass 1  IDiag  1:
 E= -268.515405529334     Delta-E=       -0.000001250253 Rises=F Damp=F
 DIIS: error= 3.14D-05 at cycle   6 NSaved=   6.
 NSaved= 6 IEnMin= 6 EnMin= -268.515405529334     IErMin= 6 ErrMin= 3.14D-05
 ErrMax= 3.14D-05  0.00D+00 EMaxC= 1.00D-01 BMatC= 1.98D-07 BMatP= 1.61D-06
 IDIUse=1 WtCom= 1.00D+00 WtEn= 0.00D+00
 Coeff-Com: -0.194D-03 0.429D-01 0.179D-01 0.103D+00 0.375D+00 0.461D+00
 Coeff:     -0.194D-03 0.429D-01 0.179D-01 0.103D+00 0.375D+00 0.461D+00
 Gap=     0.192 Goal=   None    Shift=    0.000
 RMSDP=2.71D-06 MaxDP=4.89D-05 DE=-1.25D-06 OVMax= 1.23D-04

 Cycle   7  Pass 1  IDiag  1:
 E= -268.515405680773     Delta-E=       -0.000000151438 Rises=F Damp=F
 DIIS: error= 1.02D-05 at cycle   7 NSaved=   7.
 NSaved= 7 IEnMin= 7 EnMin= -268.515405680773     IErMin= 7 ErrMin= 1.02D-05
 ErrMax= 1.02D-05  0.00D+00 EMaxC= 1.00D-01 BMatC= 1.75D-08 BMatP= 1.98D-07
 IDIUse=1 WtCom= 1.00D+00 WtEn= 0.00D+00
 Coeff-Com: -0.623D-04 0.100D-01 0.359D-02 0.305D-01 0.132D+00 0.269D+00
 Coeff-Com:  0.554D+00
 Coeff:     -0.623D-04 0.100D-01 0.359D-02 0.305D-01 0.132D+00 0.269D+00
 Coeff:      0.554D+00
 Gap=     0.192 Goal=   None    Shift=    0.000
 RMSDP=7.09D-07 MaxDP=1.61D-05 DE=-1.51D-07 OVMax= 3.08D-05

 Cycle   8  Pass 1  IDiag  1:
 E= -268.515405692231     Delta-E=       -0.000000011458 Rises=F Damp=F
 DIIS: error= 3.27D-06 at cycle   8 NSaved=   8.
 NSaved= 8 IEnMin= 8 EnMin= -268.515405692231     IErMin= 8 ErrMin= 3.27D-06
 ErrMax= 3.27D-06  0.00D+00 EMaxC= 1.00D-01 BMatC= 1.88D-09 BMatP= 1.75D-08
 IDIUse=1 WtCom= 1.00D+00 WtEn= 0.00D+00
 Coeff-Com: -0.228D-04 0.295D-02 0.801D-03 0.104D-01 0.478D-01 0.124D+00
 Coeff-Com:  0.326D+00 0.488D+00
 Coeff:     -0.228D-04 0.295D-02 0.801D-03 0.104D-01 0.478D-01 0.124D+00
 Coeff:      0.326D+00 0.488D+00
 Gap=     0.192 Goal=   None    Shift=    0.000
 RMSDP=3.56D-07 MaxDP=1.30D-05 DE=-1.15D-08 OVMax= 8.23D-06

 Cycle   9  Pass 1  IDiag  1:
 E= -268.515405693504     Delta-E=       -0.000000001273 Rises=F Damp=F
 DIIS: error= 6.39D-07 at cycle   9 NSaved=   9.
 NSaved= 9 IEnMin= 9 EnMin= -268.515405693504     IErMin= 9 ErrMin= 6.39D-07
 ErrMax= 6.39D-07  0.00D+00 EMaxC= 1.00D-01 BMatC= 4.00D-11 BMatP= 1.88D-09
 IDIUse=1 WtCom= 1.00D+00 WtEn= 0.00D+00
 Coeff-Com: -0.347D-05 0.247D-03-0.528D-04 0.125D-02 0.638D-02 0.211D-01
 Coeff-Com:  0.673D-01 0.133D+00 0.770D+00
 Coeff:     -0.347D-05 0.247D-03-0.528D-04 0.125D-02 0.638D-02 0.211D-01
 Coeff:      0.673D-01 0.133D+00 0.770D+00
 Gap=     0.192 Goal=   None    Shift=    0.000
 RMSDP=5.22D-08 MaxDP=1.02D-06 DE=-1.27D-09 OVMax= 2.73D-06

 Cycle  10  Pass 1  IDiag  1:
 E= -268.515405693537     Delta-E=       -0.000000000033 Rises=F Damp=F
 DIIS: error= 1.23D-07 at cycle  10 NSaved=  10.
 NSaved=10 IEnMin=10 EnMin= -268.515405693537     IErMin=10 ErrMin= 1.23D-07
 ErrMax= 1.23D-07  0.00D+00 EMaxC= 1.00D-01 BMatC= 2.29D-12 BMatP= 4.00D-11
 IDIUse=1 WtCom= 1.00D+00 WtEn= 0.00D+00
 Coeff-Com: -0.104D-05 0.274D-04-0.490D-04 0.298D-03 0.177D-02 0.657D-02
 Coeff-Com:  0.237D-01 0.479D-01 0.365D+00 0.555D+00
 Coeff:     -0.104D-05 0.274D-04-0.490D-04 0.298D-03 0.177D-02 0.657D-02
 Coeff:      0.237D-01 0.479D-01 0.365D+00 0.555D+00
 Gap=     0.192 Goal=   None    Shift=    0.000
 RMSDP=9.95D-09 MaxDP=2.03D-07 DE=-3.33D-11 OVMax= 4.86D-07

 CoulSu:  requested number of processors reduced to:  30 ShMem   1 Linda.
 Error on total polarization charges =  0.00933
 SCF Done:  E(RB-P86) =  -268.515405694     A.U. after   10 cycles
            NFock= 10  Conv=0.10D-07     -V/T= 2.0044
 KE= 2.673362897694D+02 PE=-9.843095080378D+02 EE= 2.708198354542D+02
 Leave Link  502 at Mon Feb 22 21:26:41 2021, MaxMem=   104857600 cpu:              76.8 elap:               3.0
 (Enter /sw/arch/RedHatEnterpriseServer7/EB_production/2019/software/Gaussian/g16.c01/l701.exe)
 ... and contract with generalized density number  0.
 Compute integral first derivatives.
 R6Disp: Adding Grimme-D3 dispersion energy 1st derivatives to the gradient.
 PrsmSu:  requested number of processors reduced to:  30 ShMem   1 Linda.
 D1PCM: PCM CHGder 1st derivatives, ID1Alg=3 FixD1E=F DoIter=F DoCFld=F I1PDM=0.
 GePol: Maximum number of non-zero 1st derivatives   =     215
 CoulSu:  requested number of processors reduced to:  29 ShMem   1 Linda.
 CoulSu:  requested number of processors reduced to:  30 ShMem   1 Linda.
 Leave Link  701 at Mon Feb 22 21:26:41 2021, MaxMem=   104857600 cpu:              16.2 elap:               0.6
 (Enter /sw/arch/RedHatEnterpriseServer7/EB_production/2019/software/Gaussian/g16.c01/l702.exe)
 L702 exits ... SP integral derivatives will be done elsewhere.
 Leave Link  702 at Mon Feb 22 21:26:41 2021, MaxMem=   104857600 cpu:               0.7 elap:               0.0
 (Enter /sw/arch/RedHatEnterpriseServer7/EB_production/2019/software/Gaussian/g16.c01/l703.exe)
 Integral derivatives from FoFJK, PRISM(SPDF).
 Compute integral first derivatives, UseDBF=F ICtDFT=           0.
 Calling FoFJK, ICntrl=      2527 FMM=F ISym2X=0 I1Cent= 0 IOpClX= 0 NMat=1 NMatS=1 NMatT=0.
 FoFJK:  IHMeth= 1 ICntrl=    2527 DoSepK=F KAlg= 0 I1Cent=           0 FoldK=F
 IRaf=         0 NMat=       1 IRICut=       1 DoRegI=T DoRafI=F ISym2E= 0 IDoP0=0 IntGTp=1.
 FoFCou: FMM=F IPFlag=           0 FMFlag=      100000 FMFlg1=         800
         NFxFlg=           0 DoJE=F BraDBF=F KetDBF=F FulRan=T
         wScrn=  0.000000 ICntrl=      2527 IOpCl=  0 I1Cent=           0 NGrid=           0
         NMat0=    1 NMatS0=      1 NMatT0=    0 NMatD0=    1 NMtDS0=    0 NMtDT0=    0
 Symmetry not used in FoFCou.
 Leave Link  703 at Mon Feb 22 21:26:42 2021, MaxMem=   104857600 cpu:              13.6 elap:               0.5
 (Enter /sw/arch/RedHatEnterpriseServer7/EB_production/2019/software/Gaussian/g16.c01/l716.exe)
 Dipole        = 6.38714914D-01 7.19120463D-01 2.32112425D-01
 ***** Axes restored to original set *****
 -------------------------------------------------------------------
 Center     Atomic                   Forces (Hartrees/Bohr)
 Number     Number              X              Y              Z
 -------------------------------------------------------------------
      1        6           0.002636829    0.001252776   -0.001752477
      2        6          -0.008753442   -0.006922348   -0.001367611
      3        6           0.025063207   -0.002691643    0.007871441
      4        8          -0.015309991    0.002523190   -0.004382017
      5        8          -0.008814168    0.003393196   -0.002097992
      6        1          -0.000291315   -0.000138685    0.000691173
      7        1           0.000018571   -0.000485226   -0.000020713
      8        1           0.000302464    0.000256906    0.000045289
      9        1           0.000691948   -0.001290753   -0.000648836
     10        1           0.000856666    0.000669589   -0.000140881
     11        1           0.003599233    0.003433000    0.001802623
 -------------------------------------------------------------------
 Cartesian Forces:  Max     0.025063207 RMS     0.006084453
 Leave Link  716 at Mon Feb 22 21:26:42 2021, MaxMem=   104857600 cpu:               0.8 elap:               0.1
 (Enter /sw/arch/RedHatEnterpriseServer7/EB_production/2019/software/Gaussian/g16.c01/l103.exe)

 GradGradGradGradGradGradGradGradGradGradGradGradGradGradGradGradGradGrad
 Berny optimization.
 Using GEDIIS/GDIIS optimizer.
 FormGI is forming the generalized inverse of G from B-inverse, IUseBI=4.
 Internal  Forces:  Max     0.015661314 RMS     0.003347844
 Search for a local minimum.
 Step number   2 out of a maximum of   53
 All quantities printed in internal units (Hartrees-Bohrs-Radians)
 RMS Force = .33478D-02 SwitMx=.10000D-02 MixMth= 1
 Mixed Optimization -- RFO/linear search
 Update second derivatives using D2CorX and points    1    2
 DE= -8.74D-03 DEPred=-8.56D-03 R= 1.02D+00
 TightC=F SS=  1.41D+00  RLast= 2.74D-01 DXNew= 5.0454D-01 8.2233D-01
 Trust test= 1.02D+00 RLast= 2.74D-01 DXMaxT set to 5.05D-01
 ITU=  1  0
 Use linear search instead of GDIIS.
     Eigenvalues ---    0.00230   0.01086   0.01401   0.02312   0.04188
     Eigenvalues ---    0.05381   0.05435   0.05597   0.09576   0.13030
     Eigenvalues ---    0.15422   0.16000   0.16000   0.16090   0.22023
     Eigenvalues ---    0.23471   0.26597   0.28622   0.34097   0.34436
     Eigenvalues ---    0.34524   0.34562   0.34699   0.35273   0.51704
     Eigenvalues ---    0.56464   0.80231
 RFO step:  Lambda=-1.10331936D-03 EMin= 2.29999924D-03
 Quartic linear search produced a step of  0.05834.
 Iteration  1 RMS(Cart)=  0.01715051 RMS(Int)=  0.00035349
 Iteration  2 RMS(Cart)=  0.00038216 RMS(Int)=  0.00014965
 Iteration  3 RMS(Cart)=  0.00000010 RMS(Int)=  0.00014965
 ITry= 1 IFail=0 DXMaxC= 5.43D-02 DCOld= 1.00D+10 DXMaxT= 5.05D-01 DXLimC= 3.00D+00 Rises=F
 Variable       Old X    -DE/DX   Delta X   Delta X   Delta X     New X
                                 (Linear)    (Quad)   (Total)
    R1        2.92714  -0.00290   0.00052  -0.01079  -0.01027   2.91687
    R2        2.07652   0.00059   0.00069   0.00190   0.00259   2.07910
    R3        2.07509   0.00042   0.00082   0.00140   0.00222   2.07731
    R4        2.07586  -0.00005   0.00071  -0.00005   0.00066   2.07652
    R5        2.82437   0.00858   0.00207   0.02612   0.02819   2.85257
    R6        2.06909   0.00140   0.00016   0.00432   0.00448   2.07356
    R7        2.08347  -0.00005   0.00111   0.00000   0.00111   2.08459
    R8        2.33884  -0.01566  -0.00155  -0.02037  -0.02192   2.31692
    R9        2.54201   0.00857  -0.00087   0.01648   0.01561   2.55762
   R10        1.84360   0.00510  -0.00052   0.01039   0.00987   1.85347
    A1        1.93134   0.00074   0.00000   0.00479   0.00479   1.93614
    A2        1.91556  -0.00003   0.00013   0.00025   0.00038   1.91594
    A3        1.94114  -0.00054   0.00056  -0.00390  -0.00334   1.93780
    A4        1.89010  -0.00029  -0.00023  -0.00122  -0.00145   1.88865
    A5        1.89504  -0.00020  -0.00047  -0.00217  -0.00263   1.89241
    A6        1.88940   0.00032  -0.00003   0.00223   0.00220   1.89160
    A7        1.97187  -0.00059   0.00054  -0.00218  -0.00165   1.97022
    A8        1.93290  -0.00009   0.00223   0.00149   0.00372   1.93661
    A9        1.90064   0.00106  -0.00025   0.00627   0.00600   1.90663
   A10        1.86785   0.00075  -0.00295   0.00807   0.00511   1.87296
   A11        1.90061  -0.00078   0.00028  -0.01015  -0.00986   1.89075
   A12        1.88795  -0.00038   0.00012  -0.00391  -0.00382   1.88413
   A13        2.16380   0.00485   0.00309   0.02103   0.02374   2.18754
   A14        1.97048  -0.00081  -0.00762  -0.00392  -0.01192   1.95856
   A15        2.14872  -0.00402   0.00452  -0.01617  -0.01201   2.13671
   A16        1.90278  -0.00259  -0.01132  -0.01717  -0.02849   1.87429
    D1       -1.03183  -0.00030   0.00080  -0.00207  -0.00128  -1.03311
    D2        1.06329   0.00020  -0.00104   0.00784   0.00680   1.07009
    D3        3.13721   0.00033   0.00026   0.00784   0.00811  -3.13786
    D4       -3.11682  -0.00038   0.00099  -0.00372  -0.00274  -3.11956
    D5       -1.02171   0.00011  -0.00084   0.00620   0.00535  -1.01637
    D6        1.05222   0.00025   0.00045   0.00619   0.00666   1.05887
    D7        1.07605  -0.00042   0.00058  -0.00419  -0.00361   1.07244
    D8       -3.11202   0.00008  -0.00125   0.00573   0.00447  -3.10755
    D9       -1.03809   0.00022   0.00005   0.00572   0.00578  -1.03231
   D10        2.07523   0.00015  -0.00056   0.02408   0.02366   2.09889
   D11       -1.04610  -0.00048   0.00122  -0.02681  -0.02574  -1.07185
   D12       -0.05678   0.00012  -0.00167   0.01799   0.01647  -0.04031
   D13        3.10508  -0.00051   0.00011  -0.03291  -0.03294   3.07214
   D14       -2.09380   0.00056  -0.00033   0.02348   0.02330  -2.07050
   D15        1.06806  -0.00007   0.00145  -0.02742  -0.02611   1.04195
   D16        3.11665   0.00051  -0.00081   0.03148   0.03021  -3.13632
   D17       -0.00488  -0.00023   0.00094  -0.01941  -0.01801  -0.02289
         Item               Value     Threshold  Converged?
 Maximum Force            0.015661     0.000450     NO 
 RMS     Force            0.003348     0.000300     NO 
 Maximum Displacement     0.054329     0.001800     NO 
 RMS     Displacement     0.017112     0.001200     NO 
 Predicted change in Energy=-5.899644D-04
 Lowest energy point so far.  Saving SCF results.
 GradGradGradGradGradGradGradGradGradGradGradGradGradGradGradGradGradGrad

 Leave Link  103 at Mon Feb 22 21:26:42 2021, MaxMem=   104857600 cpu:               3.4 elap:               0.1
 (Enter /sw/arch/RedHatEnterpriseServer7/EB_production/2019/software/Gaussian/g16.c01/l202.exe)
                          Input orientation:                          
 ---------------------------------------------------------------------
 Center     Atomic      Atomic             Coordinates (Angstroms)
 Number     Number       Type             X           Y           Z
 ---------------------------------------------------------------------
      1          6           0        0.212394   -0.268804    0.335429
      2          6           0        1.397248    0.200879   -0.535222
      3          6           0        2.023075    1.479947   -0.034263
      4          8           0        3.191678    1.608839    0.313552
      5          8           0        1.149257    2.513483   -0.039463
      6          1           0        0.531594   -0.440052    1.374303
      7          1           0       -0.189069   -1.212400   -0.060596
      8          1           0       -0.594642    0.476947    0.338472
      9          1           0        2.187806   -0.559475   -0.565418
     10          1           0        1.046164    0.367537   -1.567611
     11          1           0        1.627355    3.303217    0.291807
 ---------------------------------------------------------------------
                    Distance matrix (angstroms):
                    1          2          3          4          5
     1  C    0.000000
     2  C    1.543540   0.000000
     3  C    2.544281   1.509514   0.000000
     4  O    3.521670   2.433669   1.226060   0.000000
     5  O    2.959625   2.378112   1.353434   2.261523   0.000000
     6  H    1.100215   2.192358   2.809798   3.521249   3.332208
     7  H    1.099264   2.176931   3.484681   4.419143   3.959011
     8  H    1.098846   2.192529   2.827964   3.951964   2.707674
     9  H    2.190494   1.097283   2.113883   2.545964   3.286074
    10  H    2.172939   1.103115   2.131423   3.111725   2.636465
    11  H    3.842311   3.218917   1.893999   2.306187   0.980814
                    6          7          8          9         10
     6  H    0.000000
     7  H    1.781800   0.000000
     8  H    1.783883   1.782593   0.000000
     9  H    2.553393   2.516086   3.103740   0.000000
    10  H    3.093839   2.508605   2.517413   1.779631   0.000000
    11  H    4.047784   4.879998   3.595448   3.996164   3.523270
                   11
    11  H    0.000000
 Stoichiometry    C3H6O2
 Framework group  C1[X(C3H6O2)]
 Deg. of freedom    27
 Full point group                 C1      NOp   1
 RotChk:  IX=0 Diff= 1.28D-02
 Largest Abelian subgroup         C1      NOp   1
 Largest concise Abelian subgroup C1      NOp   1
                         Standard orientation:                         
 ---------------------------------------------------------------------
 Center     Atomic      Atomic             Coordinates (Angstroms)
 Number     Number       Type             X           Y           Z
 ---------------------------------------------------------------------
      1          6           0        1.876176    0.136830   -0.357029
      2          6           0        0.769680   -0.491637    0.516590
      3          6           0       -0.620498   -0.122483    0.058592
      4          8           0       -1.483747   -0.916561   -0.298425
      5          8           0       -0.840591    1.211729    0.115356
      6          1           0        1.776859   -0.180694   -1.405737
      7          1           0        2.863281   -0.182278    0.006529
      8          1           0        1.831652    1.234171   -0.320659
[...]
 ! A14   A(2,3,5)              112.0528                                         !
 ! A15   A(4,3,5)              122.3295                                         !
 ! A16   A(3,5,11)             107.4073                                         !
 ! D1    D(6,1,2,3)            -59.3293                                         !
 ! D2    D(6,1,2,9)             61.6724                                         !
 ! D3    D(6,1,2,10)          -179.3975                                         !
 ! D4    D(7,1,2,3)           -178.8271                                         !
 ! D5    D(7,1,2,9)            -57.8255                                         !
 ! D6    D(7,1,2,10)            61.1046                                         !
 ! D7    D(8,1,2,3)             61.275                                          !
 ! D8    D(8,1,2,9)           -177.7234                                         !
 ! D9    D(8,1,2,10)           -58.7933                                         !
 ! D10   D(1,2,3,4)            127.0231                                         !
 ! D11   D(1,2,3,5)            -53.4787                                         !
 ! D12   D(9,2,3,4)              3.6369                                         !
 ! D13   D(9,2,3,5)           -176.8648                                         !
 ! D14   D(10,2,3,4)          -111.4396                                         !
 ! D15   D(10,2,3,5)            68.0587                                         !
 ! D16   D(2,3,5,11)          -179.5941                                         !
 ! D17   D(4,3,5,11)            -0.0769                                         !
 --------------------------------------------------------------------------------
                          Input orientation:                          
 ---------------------------------------------------------------------
 Center     Atomic      Atomic             Coordinates (Angstroms)
 Number     Number       Type             X           Y           Z
 ---------------------------------------------------------------------
      1          6           0        0.202670   -0.256089    0.326089
      2          6           0        1.405219    0.187199   -0.524759
      3          6           0        2.038171    1.479123   -0.058414
      4          8           0        3.223553    1.641094    0.192639
      5          8           0        1.125347    2.487191    0.048880
      6          1           0        0.494972   -0.403338    1.376190
      7          1           0       -0.193902   -1.208093   -0.053823
      8          1           0       -0.602495    0.490318    0.294176
      9          1           0        2.195271   -0.575021   -0.527267
     10          1           0        1.087337    0.339128   -1.570093
     11          1           0        1.606715    3.288608    0.347373
 ---------------------------------------------------------------------
                    Distance matrix (angstroms):
                    1          2          3          4          5
     1  C    0.000000
     2  C    1.538366   0.000000
     3  C    2.554969   1.512341   0.000000
     4  O    3.569712   2.436147   1.222454   0.000000
     5  O    2.907536   2.386913   1.364170   2.266940   0.000000
     6  H    1.099925   2.188811   2.825458   3.609107   3.242574
     7  H    1.099051   2.173892   3.493322   4.456188   3.925059
     8  H    1.098378   2.189395   2.841685   3.996654   2.652002
     9  H    2.190979   1.097801   2.112821   2.546919   3.294515
    10  H    2.175414   1.103111   2.118690   3.060353   2.690111
    11  H    3.812699   3.227995   1.903956   2.313527   0.981367
                    6          7          8          9         10
     6  H    0.000000
     7  H    1.779638   0.000000
     8  H    1.781519   1.781193   0.000000
     9  H    2.558054   2.516560   3.104386   0.000000
    10  H    3.095600   2.516851   2.520692   1.775013   0.000000
    11  H    3.990602   4.860401   3.565651   4.004874   3.556102
                   11
    11  H    0.000000
 Stoichiometry    C3H6O2
 Framework group  C1[X(C3H6O2)]
 Deg. of freedom    27
 Full point group                 C1      NOp   1
 Largest Abelian subgroup         C1      NOp   1
 Largest concise Abelian subgroup C1      NOp   1
                         Standard orientation:                         
 ---------------------------------------------------------------------
 Center     Atomic      Atomic             Coordinates (Angstroms)
 Number     Number       Type             X           Y           Z
 ---------------------------------------------------------------------
      1          6           0        1.882212    0.145500   -0.321877
      2          6           0        0.760327   -0.567852    0.452121
      3          6           0       -0.630252   -0.125529    0.054863
      4          8           0       -1.541455   -0.864570   -0.288535
      5          8           0       -0.778001    1.228543    0.129837
      6          1           0        1.787589   -0.028382   -1.403841
      7          1           0        2.860863   -0.237056    0.000314
      8          1           0        1.859825    1.229146   -0.143993
      9          1           0        0.804914   -1.655270    0.308240
     10          1           0        0.868404   -0.371292    1.532184
     11          1           0       -1.699669    1.438359   -0.133958
 ---------------------------------------------------------------------
 Rotational constants (GHZ):           8.9130983           3.8732225           3.0143367
 Standard basis: TZVP (5D, 7F)
 There are   136 symmetry adapted cartesian basis functions of A   symmetry.
 There are   131 symmetry adapted basis functions of A   symmetry.
   131 basis functions,   223 primitive gaussians,   136 cartesian basis functions
    20 alpha electrons       20 beta electrons
       nuclear repulsion energy       177.2854517787 Hartrees.
 NAtoms=   11 NActive=   11 NUniq=   11 SFac= 1.00D+00 NAtFMM=   60 NAOKFM=F Big=F
 Integral buffers will be    131072 words long.
 Raffenetti 2 integral format.
 Two-electron integral symmetry is turned on.
 Warning! Using old PCM defaults because the COSMOthermo output has been requested.
 These settings can be overridden by following keywords.
 ------------------------------------------------------------------------------
 Polarizable Continuum Model (PCM)
 =================================
 Model                : C-PCM.
 Atomic radii         : Klamt.
 XCosmo               : -1.000 (infinite dielectric limit)
 Polarization charges : Electronic and nuclear charges.
 Charge compensation  : Type 3 (Electronic density weighted correction).
 Solution method      : On-the-fly selection.
 Cavity type          : VdW (van der Waals Surface) (Alpha=1.000).
 Cavity algorithm     : GePol (No added spheres)
                        Default sphere list used, NSphG=   11.
                        Tesserae with average area of 0.200 Ang**2.
                        Smoothing algorithm: None.
                        Polarization charges: point-like.
                        Self-potential: constant (ISelfS= 1).
                        Self-field    : global E.n sum rule (ISelfD= 3).
 Solvent              : Water, Eps=  78.355300 Eps(inf)=   1.777849
 ------------------------------------------------------------------------------
 Spheres list:
 ISph  on   Nord     Re0    Alpha      Xe            Ye            Ze
    1   C      1    2.0000  1.000      1.882212      0.145500     -0.321877
    2   C      2    2.0000  1.000      0.760327     -0.567852      0.452121
    3   C      3    2.0000  1.000     -0.630252     -0.125529      0.054863
    4   O      4    1.7200  1.000     -1.541455     -0.864570     -0.288535
    5   O      5    1.7200  1.000     -0.778001      1.228543      0.129837
    6   H      6    1.3000  1.000      1.787589     -0.028382     -1.403841
    7   H      7    1.3000  1.000      2.860863     -0.237056      0.000314
    8   H      8    1.3000  1.000      1.859825      1.229146     -0.143993
    9   H      9    1.3000  1.000      0.804914     -1.655270      0.308240
   10   H     10    1.3000  1.000      0.868404     -0.371292      1.532184
   11   H     11    1.3000  1.000     -1.699669      1.438359     -0.133958
 ------------------------------------------------------------------------------
 One-electron integrals computed using PRISM.
 PrsmSu:  requested number of processors reduced to:  30 ShMem   1 Linda.
 NBasis=   131 RedAO= T EigKep=  3.63D-04  NBF=   131
 NBsUse=   131 1.00D-06 EigRej= -1.00D+00 NBFU=   131
 Initial guess from the checkpoint file:  "XBDQKXXYIPTUBI-UHFFFAOYSA-N.chk"
 B after Tr=     0.000000    0.000000    0.000000
         Rot=    1.000000    0.000000   -0.000000    0.000000 Ang=   0.00 deg.
 Keep J ints in memory in canonical form, NReq=68234207.
 Requested convergence on RMS density matrix=1.00D-08 within 128 cycles.
 Requested convergence on MAX density matrix=1.00D-06.
 Requested convergence on             energy=1.00D-06.
 No special actions if energy rises.
 Inv3:  Mode=1 IEnd=     1905627.
 Iteration    1 A*A^-1 deviation from unit magnitude is 3.55D-15 for    376.
 Iteration    1 A*A^-1 deviation from orthogonality  is 1.88D-15 for    790    198.
 Iteration    1 A^-1*A deviation from unit magnitude is 3.55D-15 for    376.
 Iteration    1 A^-1*A deviation from orthogonality  is 2.60D-15 for    482    378.
 Error on nuclear    polarization charges =  0.01254
 Error on electronic polarization charges = -0.03590
 SCF Done:  E(RB-P86) =  -268.514482034     A.U. after   10 cycles
            NFock= 10  Conv=0.37D-08     -V/T= 2.0045
 --------------------------------------------------------------------
 Variational C-PCM results
 =========================
 <psi(f)|   H    |psi(f)>                     (a.u.) =    -268.500586
 <psi(f)|H+V(f)/2|psi(f)>                     (a.u.) =    -268.514482
 Total free energy in solution:
 - with all non electrostatic terms           (a.u.) =    -268.506789
 --------------------------------------------------------------------
 (Polarized solute)-Solvent               (kcal/mol) =      -8.72
 --------------------------------------------------------------------
 Cavitation energy                        (kcal/mol) =      14.73
 Dispersion energy                        (kcal/mol) =     -10.90
 Repulsion energy                         (kcal/mol) =       1.00
 Total non electrostatic                  (kcal/mol) =       4.83
 --------------------------------------------------------------------
 Partition over spheres:
 Sphere  on Atom  Surface  Charge   GEl     GCav    GDR
    1      C1      17.95   0.016    0.01    2.11   -1.24
    2      C2      10.42  -0.020   -0.10    1.22   -0.53
    3      C3      10.31  -0.028   -0.16    1.21   -0.58
    4      O4      20.46   0.252   -4.07    2.54   -1.77
    5      O5      15.06   0.089   -0.70    1.87   -1.25
    6      H6       6.53  -0.027   -0.17    0.92   -0.75
    7      H7       6.52  -0.028   -0.23    0.92   -0.75
    8      H8       6.30  -0.025   -0.11    0.89   -0.60
    9      H9       6.51  -0.036   -0.17    0.92   -0.75
   10      H10      6.57  -0.043   -0.41    0.93   -0.80
   11      H11      8.45  -0.149   -2.61    1.19   -0.88
 --------------------------------------------------------------------
 - cavitation energy not included in the total energy.
 - dispersion energy not included in the total energy.
 - repulsion  energy not included in the total energy.
 After PCM corrections, the energy is  -268.514482034     a.u.
 --------------------------------------------------------------------
 Writing COSMO formatted file "XBDQKXXYIPTUBI-UHFFFAOYSA-N.cosmo"
 Recomputed dielectric energy= -0.013932 old= -0.013896 diff=-3.59D-05

 **********************************************************************

            Population analysis using the SCF Density.

 **********************************************************************

 Orbital symmetries:
       Occupied  (A) (A) (A) (A) (A) (A) (A) (A) (A) (A) (A) (A)
                 (A) (A) (A) (A) (A) (A) (A) (A)
       Virtual   (A) (A) (A) (A) (A) (A) (A) (A) (A) (A) (A) (A)
                 (A) (A) (A) (A) (A) (A) (A) (A) (A) (A) (A) (A)
                 (A) (A) (A) (A) (A) (A) (A) (A) (A) (A) (A) (A)
                 (A) (A) (A) (A) (A) (A) (A) (A) (A) (A) (A) (A)
                 (A) (A) (A) (A) (A) (A) (A) (A) (A) (A) (A) (A)
                 (A) (A) (A) (A) (A) (A) (A) (A) (A) (A) (A) (A)
                 (A) (A) (A) (A) (A) (A) (A) (A) (A) (A) (A) (A)
                 (A) (A) (A) (A) (A) (A) (A) (A) (A) (A) (A) (A)
                 (A) (A) (A) (A) (A) (A) (A) (A) (A) (A) (A) (A)
                 (A) (A) (A)
 The electronic state is 1-A.
 Alpha  occ. eigenvalues --  -18.81959 -18.76947 -10.03223  -9.91242  -9.89384
 Alpha  occ. eigenvalues --   -1.02140  -0.93869  -0.71734  -0.60513  -0.54593
 Alpha  occ. eigenvalues --   -0.44761  -0.43717  -0.41639  -0.38874  -0.36648
 Alpha  occ. eigenvalues --   -0.34059  -0.32663  -0.31205  -0.29211  -0.24546
 Alpha virt. eigenvalues --   -0.04808   0.02221   0.05755   0.07130   0.08623
 Alpha virt. eigenvalues --    0.09902   0.11027   0.13160   0.14895   0.16039
 Alpha virt. eigenvalues --    0.19069   0.19889   0.21941   0.23051   0.25634
 Alpha virt. eigenvalues --    0.28903   0.30394   0.32743   0.33681   0.36588
 Alpha virt. eigenvalues --    0.38989   0.39651   0.40472   0.41001   0.42709
 Alpha virt. eigenvalues --    0.44277   0.44505   0.46654   0.48326   0.50024
 Alpha virt. eigenvalues --    0.54336   0.56251   0.57854   0.58931   0.69622
 Alpha virt. eigenvalues --    0.75467   0.84334   1.05108   1.10980   1.19274
 Alpha virt. eigenvalues --    1.21206   1.23387   1.23748   1.25644   1.28600
 Alpha virt. eigenvalues --    1.29699   1.32502   1.34659   1.36720   1.39973
 Alpha virt. eigenvalues --    1.41933   1.47462   1.49459   1.51986   1.53406
 Alpha virt. eigenvalues --    1.57875   1.65237   1.69093   1.71386   1.72705
 Alpha virt. eigenvalues --    1.75515   1.76315   1.79276   1.87666   1.91107
 Alpha virt. eigenvalues --    2.00536   2.05155   2.10726   2.11453   2.17543
 Alpha virt. eigenvalues --    2.22377   2.24194   2.27197   2.31145   2.36108
 Alpha virt. eigenvalues --    2.39839   2.45782   2.49487   2.51273   2.52346
 Alpha virt. eigenvalues --    2.52895   2.55945   2.56582   2.57917   2.60078
 Alpha virt. eigenvalues --    2.60810   2.62051   2.65903   2.76313   2.80223
 Alpha virt. eigenvalues --    2.84086   2.86458   2.98068   2.99325   3.02340
 Alpha virt. eigenvalues --    3.10441   3.12106   3.15670   3.24273   3.24890
 Alpha virt. eigenvalues --    3.28360   3.29301   3.43105   3.79256   4.08572
 Alpha virt. eigenvalues --    4.18090  21.65578  21.76438  21.78050  43.01093
 Alpha virt. eigenvalues --   43.10117
          Condensed to atoms (all electrons):
               1          2          3          4          5          6
     1  C    5.136656   0.201324  -0.040172  -0.000590   0.010347   0.394913
     2  C    0.201324   5.409126   0.197691  -0.116887  -0.137855  -0.044779
     3  C   -0.040172   0.197691   4.816045   0.607795   0.282935   0.006578
     4  O   -0.000590  -0.116887   0.607795   7.975754  -0.112591   0.001649
     5  O    0.010347  -0.137855   0.282935  -0.112591   7.944609  -0.001215
     6  H    0.394913  -0.044779   0.006578   0.001649  -0.001215   0.546408
     7  H    0.395599  -0.030894   0.008206  -0.000389  -0.000150  -0.025895
     8  H    0.397840  -0.027025  -0.017854   0.000457   0.009736  -0.026227
     9  H   -0.029879   0.415593  -0.058590   0.011427   0.007102  -0.004010
    10  H   -0.039876   0.380305  -0.006715   0.001372   0.001564   0.007267
    11  H   -0.000247   0.012441  -0.011893   0.002435   0.281838  -0.000239
               7          8          9         10         11
     1  C    0.395599   0.397840  -0.029879  -0.039876  -0.000247
     2  C   -0.030894  -0.027025   0.415593   0.380305   0.012441
     3  C    0.008206  -0.017854  -0.058590  -0.006715  -0.011893
     4  O   -0.000389   0.000457   0.011427   0.001372   0.002435
     5  O   -0.000150   0.009736   0.007102   0.001564   0.281838
     6  H   -0.025895  -0.026227  -0.004010   0.007267  -0.000239
     7  H    0.522765  -0.019402  -0.003091  -0.006400   0.000054
     8  H   -0.019402   0.530364   0.006025  -0.003188  -0.000348
     9  H   -0.003091   0.006025   0.511785  -0.016929  -0.000653
    10  H   -0.006400  -0.003188  -0.016929   0.503964  -0.000454
    11  H    0.000054  -0.000348  -0.000653  -0.000454   0.386419
 Mulliken charges:
               1
     1  C   -0.425914
     2  C   -0.259039
     3  C    0.215974
     4  O   -0.370433
     5  O   -0.286318
     6  H    0.145550
     7  H    0.159599
     8  H    0.149623
     9  H    0.161221
    10  H    0.179090
    11  H    0.330648
 Sum of Mulliken charges =  -0.00000
 Mulliken charges with hydrogens summed into heavy atoms:
               1
     1  C    0.028858
     2  C    0.081272
     3  C    0.215974
     4  O   -0.370433
     5  O    0.044330
 Electronic spatial extent (au):  <R**2>=            439.4447
 Charge=             -0.0000 electrons
 Dipole moment (field-independent basis, Debye):
    X=              1.7117    Y=              1.6016    Z=              0.6226  Tot=              2.4254
 Quadrupole moment (field-independent basis, Debye-Ang):
   XX=            -30.0780   YY=            -31.8779   ZZ=            -29.8996
   XY=             -6.7684   XZ=             -0.2004   YZ=             -1.6938
 Traceless Quadrupole moment (field-independent basis, Debye-Ang):
   XX=              0.5405   YY=             -1.2594   ZZ=              0.7189
   XY=             -6.7684   XZ=             -0.2004   YZ=             -1.6938
 Octapole moment (field-independent basis, Debye-Ang**2):
  XXX=             -4.7610  YYY=              5.4641  ZZZ=              0.7254  XYY=             -3.3139
  XXY=             13.0155  XXZ=              1.9213  XZZ=             -1.6128  YZZ=              0.5905
  YYZ=             -0.4689  XYZ=              2.1569
 Hexadecapole moment (field-independent basis, Debye-Ang**3):
 XXXX=           -347.4234 YYYY=           -139.8222 ZZZZ=            -57.8728 XXXY=            -29.5483
 XXXZ=              1.9334 YYYX=            -15.0510 YYYZ=             -1.8023 ZZZX=              1.6590
 ZZZY=              0.5665 XXYY=            -76.2484 XXZZ=            -70.1579 YYZZ=            -36.1614
 XXYZ=             -3.3315 YYXZ=              1.6037 ZZXY=             -1.6800
 N-N= 1.772854517787D+02 E-N=-9.836130010223D+02  KE= 2.673167304859D+02
 Unable to Open any file for archive entry.
 1\1\GINC-TCN1637\SP\RBP86\TZVP\C3H6O2\ELENAA\22-Feb-2021\0\\# BP86/TZV
 P SCRF=COSMORS geom=CHECKPOINT guess=CHECKPOINT\\COSMO-file for #XBDQK
 XXYIPTUBI-UHFFFAOYSA-N\\0,1\C,0,0.2026704026,-0.2560890714,0.326088713
 9\C,0,1.4052191406,0.1871991011,-0.5247593637\C,0,2.0381709966,1.47912
 34385,-0.0584140496\O,0,3.2235533346,1.6410942669,0.192638612\O,0,1.12
 53470023,2.487191122,0.0488803316\H,0,0.4949722196,-0.4033382958,1.376
 1900563\H,0,-0.1939015078,-1.2080927005,-0.0538225454\H,0,-0.602495232
 6,0.4903176506,0.2941755309\H,0,2.1952710319,-0.5750209785,-0.52726694
 01\H,0,1.0873371636,0.3391278083,-1.5700931349\H,0,1.6067154486,3.2886
 07659,0.347372789\\Version=ES64L-G16RevC.01\State=1-A\HF=-268.514482\R
 MSD=3.696e-09\Dipole=-0.9374826,-0.0653639,-0.1656123\Quadrupole=-5.48
 34868,4.6326501,0.8508366,0.2277447,-0.4560908,1.0978744\PG=C01 [X(C3H
 6O2)]\\@
 The archive entry for this job was punched.


 QED = W**5 (WHICH WAS WHAT WE WANTED)
 Job cpu time:       0 days  0 hours  1 minutes 35.0 seconds.
 Elapsed time:       0 days  0 hours  0 minutes  3.9 seconds.
 File lengths (MBytes):  RWF=     17 Int=      0 D2E=      0 Chk=      5 Scr=      1
 Normal termination of Gaussian 16 at Mon Feb 22 21:28:06 2021.
