 Entering Gaussian System, Link 0=g16
 Input=XGEGHDBEHXKFPX-UHFFFAOYSA-N.gjf
 Output=XGEGHDBEHXKFPX-UHFFFAOYSA-N.log
 Initial command:
 /sw/arch/RedHatEnterpriseServer7/EB_production/2019/software/Gaussian/g16.c01/l1.exe "/scratch-local/elenaa.9715296/Gau-30006.inp" -scrdir="/scratch-local/elenaa.9715296/"
 Entering Link 1 = /sw/arch/RedHatEnterpriseServer7/EB_production/2019/software/Gaussian/g16.c01/l1.exe PID=     30007.
  
 Copyright (c) 1988-2019, Gaussian, Inc.  All Rights Reserved.
  
 This is part of the Gaussian(R) 16 program.  It is based on
 the Gaussian(R) 09 system (copyright 2009, Gaussian, Inc.),
 the Gaussian(R) 03 system (copyright 2003, Gaussian, Inc.),
 the Gaussian(R) 98 system (copyright 1998, Gaussian, Inc.),
 the Gaussian(R) 94 system (copyright 1995, Gaussian, Inc.),
 the Gaussian 92(TM) system (copyright 1992, Gaussian, Inc.),
 the Gaussian 90(TM) system (copyright 1990, Gaussian, Inc.),
 the Gaussian 88(TM) system (copyright 1988, Gaussian, Inc.),
 the Gaussian 86(TM) system (copyright 1986, Carnegie Mellon
 University), and the Gaussian 82(TM) system (copyright 1983,
 Carnegie Mellon University). Gaussian is a federally registered
 trademark of Gaussian, Inc.
  
 This software contains proprietary and confidential information,
 including trade secrets, belonging to Gaussian, Inc.
  
 This software is provided under written license and may be
 used, copied, transmitted, or stored only in accord with that
 written license.
  
 The following legend is applicable only to US Government
 contracts under FAR:
  
                    RESTRICTED RIGHTS LEGEND
  
 Use, reproduction and disclosure by the US Government is
 subject to restrictions as set forth in subparagraphs (a)
 and (c) of the Commercial Computer Software - Restricted
 Rights clause in FAR 52.227-19.
  
 Gaussian, Inc.
 340 Quinnipiac St., Bldg. 40, Wallingford CT 06492
  
  
 ---------------------------------------------------------------
 Warning -- This program may not be used in any manner that
 competes with the business of Gaussian, Inc. or will provide
 assistance to any competitor of Gaussian, Inc.  The licensee
 of this program is prohibited from giving any competitor of
 Gaussian, Inc. access to this program.  By using this program,
 the user acknowledges that Gaussian, Inc. is engaged in the
 business of creating and licensing software in the field of
 computational chemistry and represents and warrants to the
 licensee that it is not a competitor of Gaussian, Inc. and that
 it will not use this program in any manner prohibited above.
 ---------------------------------------------------------------
  

 Cite this work as:
 Gaussian 16, Revision C.01,
 M. J. Frisch, G. W. Trucks, H. B. Schlegel, G. E. Scuseria, 
 M. A. Robb, J. R. Cheeseman, G. Scalmani, V. Barone, 
 G. A. Petersson, H. Nakatsuji, X. Li, M. Caricato, A. V. Marenich, 
 J. Bloino, B. G. Janesko, R. Gomperts, B. Mennucci, H. P. Hratchian, 
 J. V. Ortiz, A. F. Izmaylov, J. L. Sonnenberg, D. Williams-Young, 
 F. Ding, F. Lipparini, F. Egidi, J. Goings, B. Peng, A. Petrone, 
 T. Henderson, D. Ranasinghe, V. G. Zakrzewski, J. Gao, N. Rega, 
 G. Zheng, W. Liang, M. Hada, M. Ehara, K. Toyota, R. Fukuda, 
 J. Hasegawa, M. Ishida, T. Nakajima, Y. Honda, O. Kitao, H. Nakai, 
 T. Vreven, K. Throssell, J. A. Montgomery, Jr., J. E. Peralta, 
 F. Ogliaro, M. J. Bearpark, J. J. Heyd, E. N. Brothers, K. N. Kudin, 
 V. N. Staroverov, T. A. Keith, R. Kobayashi, J. Normand, 
 K. Raghavachari, A. P. Rendell, J. C. Burant, S. S. Iyengar, 
 J. Tomasi, M. Cossi, J. M. Millam, M. Klene, C. Adamo, R. Cammi, 
 J. W. Ochterski, R. L. Martin, K. Morokuma, O. Farkas, 
 J. B. Foresman, and D. J. Fox, Gaussian, Inc., Wallingford CT, 2019.
 
 ******************************************
 Gaussian 16:  ES64L-G16RevC.01  3-Jul-2019
                22-Feb-2021 
 ******************************************
 %chk=XGEGHDBEHXKFPX-UHFFFAOYSA-N.chk
 %NProcShared=32
 Will use up to   32 processors via shared memory.
 -------------------------------------------------------------
 #P BP86/TZVP EmpiricalDispersion=GD3 SCRF=(Solvent=Water) Opt
 -------------------------------------------------------------
 1/18=20,19=15,26=3,38=1/1,3;
 2/9=110,12=2,17=6,18=5,40=1/2;
 3/5=19,7=101,11=2,25=1,30=1,70=2201,71=1,72=1,74=404,124=31/1,2,3;
 4//1;
 5/5=2,38=5,53=1/2;
 6/7=2,8=2,9=2,10=2,28=1/1;
 7//1,2,3,16;
 1/18=20,19=15,26=3/3(2);
 2/9=110/2;
 99//99;
 2/9=110/2;
 3/5=19,7=101,11=2,25=1,30=1,70=2205,71=1,72=1,74=404,124=31/1,2,3;
 4/5=5,16=3,69=1/1;
 5/5=2,38=5,53=1/2;
 7//1,2,3,16;
 1/18=20,19=15,26=3/3(-5);
 2/9=110/2;
 6/7=2,8=2,9=2,10=2,19=2,28=1/1;
 99/9=1/99;
 Leave Link    1 at Mon Feb 22 21:28:15 2021, MaxMem=           0 cpu:               2.8 elap:               0.1
 (Enter /sw/arch/RedHatEnterpriseServer7/EB_production/2019/software/Gaussian/g16.c01/l101.exe)
 -------------------------------------
 Particle #XGEGHDBEHXKFPX-UHFFFAOYSA-N
 -------------------------------------
 Symbolic Z-matrix:
 Charge =  0 Multiplicity = 1
 C                     0.777    -0.55877  -0.13876 
 N                     0.51345   0.55238   0.70788 
 C                    -0.70045   0.85517   1.22822 
 N                    -0.81198   1.93801   2.01242 
 O                    -1.72192   0.1669    1.00131 
 H                     0.1685   -0.50109  -1.04339 
 H                     1.82803  -0.54105  -0.4224 
 H                     0.57265  -1.49398   0.38538 
 H                     1.25862   1.1318    0.93193 
 H                    -1.66982   2.17296   2.39679 
 H                    -0.03282   2.488     2.19877 
 
 ITRead=  0  0  0  0  0  0  0  0  0  0  0
 MicOpt= -1 -1 -1 -1 -1 -1 -1 -1 -1 -1 -1
 NAtoms=     11 NQM=       11 NQMF=       0 NMMI=      0 NMMIF=      0
                NMic=       0 NMicF=      0.
                    Isotopes and Nuclear Properties:
 (Nuclear quadrupole moments (NQMom) in fm**2, nuclear magnetic moments (NMagM)
  in nuclear magnetons)

  Atom         1           2           3           4           5           6           7           8           9          10
 IAtWgt=          12          14          12          14          16           1           1           1           1           1
 AtmWgt=  12.0000000  14.0030740  12.0000000  14.0030740  15.9949146   1.0078250   1.0078250   1.0078250   1.0078250   1.0078250
 NucSpn=           0           2           0           2           0           1           1           1           1           1
 AtZEff=  -0.0000000  -0.0000000  -0.0000000  -0.0000000  -0.0000000  -0.0000000  -0.0000000  -0.0000000  -0.0000000  -0.0000000
 NQMom=    0.0000000   2.0440000   0.0000000   2.0440000   0.0000000   0.0000000   0.0000000   0.0000000   0.0000000   0.0000000
 NMagM=    0.0000000   0.4037610   0.0000000   0.4037610   0.0000000   2.7928460   2.7928460   2.7928460   2.7928460   2.7928460
 AtZNuc=   6.0000000   7.0000000   6.0000000   7.0000000   8.0000000   1.0000000   1.0000000   1.0000000   1.0000000   1.0000000

  Atom        11
 IAtWgt=           1
 AtmWgt=   1.0078250
 NucSpn=           1
 AtZEff=  -0.0000000
 NQMom=    0.0000000
 NMagM=    2.7928460
 AtZNuc=   1.0000000
 Leave Link  101 at Mon Feb 22 21:28:15 2021, MaxMem=   104857600 cpu:               2.8 elap:               0.1
 (Enter /sw/arch/RedHatEnterpriseServer7/EB_production/2019/software/Gaussian/g16.c01/l103.exe)

 GradGradGradGradGradGradGradGradGradGradGradGradGradGradGradGradGradGrad
 Berny optimization.
 Initialization pass.
                           ----------------------------
                           !    Initial Parameters    !
                           ! (Angstroms and Degrees)  !
 --------------------------                            --------------------------
 ! Name  Definition              Value          Derivative Info.                !
 --------------------------------------------------------------------------------
 ! R1    R(1,2)                  1.4216         estimate D2E/DX2                !
 ! R2    R(1,6)                  1.0918         estimate D2E/DX2                !
 ! R3    R(1,7)                  1.0888         estimate D2E/DX2                !
 ! R4    R(1,8)                  1.0914         estimate D2E/DX2                !
 ! R5    R(2,3)                  1.355          estimate D2E/DX2                !
 ! R6    R(2,9)                  0.9702         estimate D2E/DX2                !
 ! R7    R(3,4)                  1.3416         estimate D2E/DX2                !
 ! R8    R(3,5)                  1.2524         estimate D2E/DX2                !
 ! R9    R(4,10)                 0.9689         estimate D2E/DX2                !
 ! R10   R(4,11)                 0.9718         estimate D2E/DX2                !
 ! A1    A(2,1,6)              110.4172         estimate D2E/DX2                !
 ! A2    A(2,1,7)              108.7473         estimate D2E/DX2                !
 ! A3    A(2,1,8)              110.4292         estimate D2E/DX2                !
 ! A4    A(6,1,7)              108.7423         estimate D2E/DX2                !
 ! A5    A(6,1,8)              109.8068         estimate D2E/DX2                !
 ! A6    A(7,1,8)              108.6514         estimate D2E/DX2                !
 ! A7    A(1,2,3)              124.7125         estimate D2E/DX2                !
 ! A8    A(1,2,9)              117.5139         estimate D2E/DX2                !
 ! A9    A(3,2,9)              117.7728         estimate D2E/DX2                !
 ! A10   A(2,3,4)              118.6397         estimate D2E/DX2                !
 ! A11   A(2,3,5)              122.567          estimate D2E/DX2                !
 ! A12   A(4,3,5)              118.7927         estimate D2E/DX2                !
 ! A13   A(3,4,10)             120.0784         estimate D2E/DX2                !
 ! A14   A(3,4,11)             120.1485         estimate D2E/DX2                !
 ! A15   A(10,4,11)            119.7729         estimate D2E/DX2                !
 ! D1    D(6,1,2,3)             59.449          estimate D2E/DX2                !
 ! D2    D(6,1,2,9)           -120.8919         estimate D2E/DX2                !
 ! D3    D(7,1,2,3)            178.6843         estimate D2E/DX2                !
 ! D4    D(7,1,2,9)             -1.6565         estimate D2E/DX2                !
 ! D5    D(8,1,2,3)            -62.1843         estimate D2E/DX2                !
 ! D6    D(8,1,2,9)            117.4748         estimate D2E/DX2                !
 ! D7    D(1,2,3,4)           -179.8432         estimate D2E/DX2                !
 ! D8    D(1,2,3,5)             -0.1273         estimate D2E/DX2                !
 ! D9    D(9,2,3,4)              0.4984         estimate D2E/DX2                !
 ! D10   D(9,2,3,5)           -179.7856         estimate D2E/DX2                !
 ! D11   D(2,3,4,10)          -179.8894         estimate D2E/DX2                !
 ! D12   D(2,3,4,11)            -0.0436         estimate D2E/DX2                !
 ! D13   D(5,3,4,10)             0.3837         estimate D2E/DX2                !
 ! D14   D(5,3,4,11)          -179.7705         estimate D2E/DX2                !
 --------------------------------------------------------------------------------
 Trust Radius=3.00D-01 FncErr=1.00D-07 GrdErr=1.00D-06 EigMax=2.50D+02 EigMin=1.00D-04
 Number of steps in this run=     49 maximum allowed number of steps=    100.
 GradGradGradGradGradGradGradGradGradGradGradGradGradGradGradGradGradGrad

 Leave Link  103 at Mon Feb 22 21:28:15 2021, MaxMem=   104857600 cpu:               0.7 elap:               0.1
 (Enter /sw/arch/RedHatEnterpriseServer7/EB_production/2019/software/Gaussian/g16.c01/l202.exe)
                          Input orientation:                          
 ---------------------------------------------------------------------
 Center     Atomic      Atomic             Coordinates (Angstroms)
 Number     Number       Type             X           Y           Z
 ---------------------------------------------------------------------
      1          6           0        0.777000   -0.558770   -0.138760
      2          7           0        0.513450    0.552380    0.707880
      3          6           0       -0.700450    0.855170    1.228220
      4          7           0       -0.811980    1.938010    2.012420
      5          8           0       -1.721920    0.166900    1.001310
      6          1           0        0.168500   -0.501090   -1.043390
      7          1           0        1.828030   -0.541050   -0.422400
      8          1           0        0.572650   -1.493980    0.385380
      9          1           0        1.258620    1.131800    0.931930
     10          1           0       -1.669820    2.172960    2.396790
     11          1           0       -0.032820    2.488000    2.198770
 ---------------------------------------------------------------------
                    Distance matrix (angstroms):
                    1          2          3          4          5
     1  C    0.000000
     2  N    1.421588   0.000000
     3  C    2.459821   1.354987   0.000000
     4  N    3.658735   2.319172   1.341623   0.000000
     5  O    2.840943   2.287264   1.252440   2.233196   0.000000
     6  H    1.091767   2.072616   2.784731   4.030946   2.863686
     7  H    1.088774   2.049693   3.326738   4.363913   3.889767
     8  H    1.091375   2.072462   2.801726   4.042649   2.898783
     9  H    2.058242   0.970157   2.000567   2.470793   3.133602
    10  H    4.458508   3.200838   2.010424   0.968933   2.444249
    11  H    3.924623   2.503555   2.013413   0.971754   3.110382
                    6          7          8          9         10
     6  H    0.000000
     7  H    1.772361   0.000000
     8  H    1.786211   1.771034   0.000000
     9  H    2.785064   2.226402   2.768392   0.000000
    10  H    4.729144   5.248680   4.745618   3.435926   0.000000
    11  H    4.414384   4.416836   4.417142   2.260969   1.678759
                   11
    11  H    0.000000
 Stoichiometry    C2H6N2O
 Framework group  C1[X(C2H6N2O)]
 Deg. of freedom    27
 Full point group                 C1      NOp   1
 Largest Abelian subgroup         C1      NOp   1
 Largest concise Abelian subgroup C1      NOp   1
                         Standard orientation:                         
 ---------------------------------------------------------------------
 Center     Atomic      Atomic             Coordinates (Angstroms)
 Number     Number       Type             X           Y           Z
 ---------------------------------------------------------------------
      1          6           0       -1.936080   -0.015730   -0.000653
      2          7           0       -0.641621   -0.603342    0.000158
      3          6           0        0.521383    0.091935    0.001590
      4          7           0        1.677505   -0.588744   -0.000998
      5          8           0        0.558427    1.343826   -0.000002
      6          1           0       -2.067127    0.615784   -0.881545
      7          1           0       -2.680745   -0.809638   -0.025443
      8          1           0       -2.086495    0.575770    0.904113
      9          1           0       -0.589179   -1.572069    0.004766
     10          1           0        2.521375   -0.112604    0.001577
     11          1           0        1.671746   -1.560479   -0.003196
 ---------------------------------------------------------------------
 Rotational constants (GHZ):          10.8178744           4.0289458           2.9914960
 Leave Link  202 at Mon Feb 22 21:28:15 2021, MaxMem=   104857600 cpu:               0.8 elap:               0.1
 (Enter /sw/arch/RedHatEnterpriseServer7/EB_production/2019/software/Gaussian/g16.c01/l301.exe)
 Standard basis: TZVP (5D, 7F)
 Ernie: Thresh=  0.10000D-02 Tol=  0.10000D-05 Strict=F.
 There are   136 symmetry adapted cartesian basis functions of A   symmetry.
 There are   131 symmetry adapted basis functions of A   symmetry.
   131 basis functions,   223 primitive gaussians,   136 cartesian basis functions
    20 alpha electrons       20 beta electrons
       nuclear repulsion energy       183.8444907972 Hartrees.
 IExCor=  404 DFT=T Ex=B Corr=P86 ExCW=0 ScaHFX=  0.000000
 ScaDFX=  1.000000  1.000000  1.000000  1.000000 ScalE2=  1.000000  1.000000
 IRadAn=      5 IRanWt=     -1 IRanGd=            0 ICorTp=0 IEmpDi=131
 NAtoms=   11 NActive=   11 NUniq=   11 SFac= 1.00D+00 NAtFMM=   60 NAOKFM=F Big=F
 Integral buffers will be    131072 words long.
 Raffenetti 2 integral format.
 Two-electron integral symmetry is turned on.
 R6Disp:  Grimme-D3 Dispersion energy=       -0.0058740321 Hartrees.
 Nuclear repulsion after empirical dispersion term =      183.8386167651 Hartrees.
 ------------------------------------------------------------------------------
 Polarizable Continuum Model (PCM)
 =================================
 Model                : PCM.
 Atomic radii         : UFF (Universal Force Field).
 Polarization charges : Total charges.
 Charge compensation  : None.
 Solution method      : On-the-fly selection.
 Cavity type          : Scaled VdW (van der Waals Surface) (Alpha=1.100).
 Cavity algorithm     : GePol (No added spheres)
                        Default sphere list used, NSphG=   11.
                        Lebedev-Laikov grids with approx.  5.0 points / Ang**2.
                        Smoothing algorithm: York/Karplus (Gamma=1.0000).
                        Polarization charges: spherical gaussians, with
                                              point-specific exponents (IZeta= 3).
                        Self-potential: point-specific (ISelfS= 7).
                        Self-field    : sphere-specific E.n sum rule (ISelfD= 2).
 1st derivatives      : Analytical E(r).r(x)/FMM algorithm (CHGder, D1EAlg=3).
                        Cavity 1st derivative terms included.
 Solvent              : Water, Eps=  78.355300 Eps(inf)=   1.777849
 ------------------------------------------------------------------------------
 Spheres list:
 ISph  on   Nord     Re0    Alpha      Xe            Ye            Ze
    1   C      1    1.9255  1.100     -1.936080     -0.015730     -0.000653
    2   N      2    1.8300  1.100     -0.641621     -0.603342      0.000158
    3   C      3    1.9255  1.100      0.521383      0.091935      0.001590
    4   N      4    1.8300  1.100      1.677505     -0.588744     -0.000998
    5   O      5    1.7500  1.100      0.558427      1.343826     -0.000002
    6   H      6    1.4430  1.100     -2.067127      0.615784     -0.881545
    7   H      7    1.4430  1.100     -2.680745     -0.809638     -0.025443
    8   H      8    1.4430  1.100     -2.086495      0.575770      0.904113
    9   H      9    1.4430  1.100     -0.589179     -1.572069      0.004766
   10   H     10    1.4430  1.100      2.521375     -0.112604      0.001577
   11   H     11    1.4430  1.100      1.671746     -1.560479     -0.003196
 ------------------------------------------------------------------------------
 GePol: Number of generator spheres                  =      11
 GePol: Total number of spheres                      =      11
 GePol: Number of exposed spheres                    =      11 (100.00%)
 GePol: Number of points                             =     998
 GePol: Average weight of points                     =       0.13
 GePol: Minimum weight of points                     =   0.52D-09
 GePol: Maximum weight of points                     =    0.20571
 GePol: Number of points with low weight             =      45
 GePol: Fraction of low-weight points (<1% of avg)   =       4.51%
 GePol: Cavity surface area                          =    133.903 Ang**2
 GePol: Cavity volume                                =    117.801 Ang**3
 Leave Link  301 at Mon Feb 22 21:28:15 2021, MaxMem=   104857600 cpu:               2.0 elap:               0.1
 (Enter /sw/arch/RedHatEnterpriseServer7/EB_production/2019/software/Gaussian/g16.c01/l302.exe)
 NPDir=0 NMtPBC=     1 NCelOv=     1 NCel=       1 NClECP=     1 NCelD=      1
         NCelK=      1 NCelE2=     1 NClLst=     1 CellRange=     0.0.
 One-electron integrals computed using PRISM.
 One-electron integral symmetry used in STVInt
 PrsmSu:  requested number of processors reduced to:  30 ShMem   1 Linda.
 NBasis=   131 RedAO= T EigKep=  1.07D-03  NBF=   131
 NBsUse=   131 1.00D-06 EigRej= -1.00D+00 NBFU=   131
 Precomputing XC quadrature grid using
 IXCGrd= 4 IRadAn=           5 IRanWt=          -1 IRanGd=           0 AccXCQ= 0.00D+00.
 Generated NRdTot=       0 NPtTot=           0 NUsed=           0 NTot=          32
 NSgBfM=   135   135   135   135   135 MxSgAt=    11 MxSgA2=    11.
 Leave Link  302 at Mon Feb 22 21:28:16 2021, MaxMem=   104857600 cpu:              10.4 elap:               0.4
 (Enter /sw/arch/RedHatEnterpriseServer7/EB_production/2019/software/Gaussian/g16.c01/l303.exe)
 DipDrv:  MaxL=1.
 Leave Link  303 at Mon Feb 22 21:28:16 2021, MaxMem=   104857600 cpu:               3.1 elap:               0.2
 (Enter /sw/arch/RedHatEnterpriseServer7/EB_production/2019/software/Gaussian/g16.c01/l401.exe)
 ExpMin= 9.52D-02 ExpMax= 2.70D+04 ExpMxC= 9.22D+02 IAcc=3 IRadAn=         5 AccDes= 0.00D+00
 Harris functional with IExCor=  404 and IRadAn=       5 diagonalized for initial guess.
 HarFok:  IExCor=  404 AccDes= 0.00D+00 IRadAn=         5 IDoV= 1 UseB2=F ITyADJ=14
 ICtDFT=  3500011 ScaDFX=  1.000000  1.000000  1.000000  1.000000
 FoFCou: FMM=F IPFlag=           0 FMFlag=      100000 FMFlg1=           0
         NFxFlg=           0 DoJE=T BraDBF=F KetDBF=T FulRan=T
         wScrn=  0.000000 ICntrl=       500 IOpCl=  0 I1Cent=   200000004 NGrid=           0
         NMat0=    1 NMatS0=      1 NMatT0=    0 NMatD0=    1 NMtDS0=    0 NMtDT0=    0
 Petite list used in FoFCou.
 Harris En= -264.781547533803    
 JPrj=0 DoOrth=F DoCkMO=F.
 Leave Link  401 at Mon Feb 22 21:28:16 2021, MaxMem=   104857600 cpu:               6.5 elap:               0.2
 (Enter /sw/arch/RedHatEnterpriseServer7/EB_production/2019/software/Gaussian/g16.c01/l502.exe)
 Keep J ints in memory in canonical form, NReq=68234207.
 FoFCou: FMM=F IPFlag=           0 FMFlag=           0 FMFlg1=           0
         NFxFlg=           0 DoJE=F BraDBF=F KetDBF=F FulRan=T
         wScrn=  0.000000 ICntrl=       600 IOpCl=  0 I1Cent=           0 NGrid=           0
         NMat0=    1 NMatS0=   8646 NMatT0=    0 NMatD0=    1 NMtDS0=    0 NMtDT0=    0
 Symmetry not used in FoFCou.
 Two-electron integral symmetry not used.
 Closed shell SCF:
 Using DIIS extrapolation, IDIIS=  1040.
 NGot=   104857600 LenX=    67433499 LenY=    67414562
 Requested convergence on RMS density matrix=1.00D-08 within 128 cycles.
 Requested convergence on MAX density matrix=1.00D-06.
 Requested convergence on             energy=1.00D-06.
 No special actions if energy rises.

 Cycle   1  Pass 1  IDiag  1:
 CoulSu:  requested number of processors reduced to:  31 ShMem   1 Linda.
 Inv3:  Mode=1 IEnd=     2988012.
 Iteration    1 A*A^-1 deviation from unit magnitude is 3.33D-15 for    223.
 Iteration    1 A*A^-1 deviation from orthogonality  is 1.67D-15 for    645    101.
 Iteration    1 A^-1*A deviation from unit magnitude is 3.33D-15 for    223.
 Iteration    1 A^-1*A deviation from orthogonality  is 4.06D-13 for    486    445.
 CoulSu:  requested number of processors reduced to:  31 ShMem   1 Linda.
 CoulSu:  requested number of processors reduced to:  31 ShMem   1 Linda.
 E= -264.508064577497    
 DIIS: error= 4.17D-02 at cycle   1 NSaved=   1.
 NSaved= 1 IEnMin= 1 EnMin= -264.508064577497     IErMin= 1 ErrMin= 4.17D-02
 ErrMax= 4.17D-02  0.00D+00 EMaxC= 1.00D-01 BMatC= 2.33D-01 BMatP= 2.33D-01
 IDIUse=3 WtCom= 5.83D-01 WtEn= 4.17D-01
 Coeff-Com:  0.100D+01
 Coeff-En:   0.100D+01
 Coeff:      0.100D+01
 Gap=     0.207 Goal=   None    Shift=    0.000
 GapD=    0.207 DampG=1.000 DampE=0.500 DampFc=0.5000 IDamp=-1.
 Damping current iteration by 5.00D-01
 RMSDP=1.36D-02 MaxDP=3.73D-01              OVMax= 3.40D-01

 Cycle   2  Pass 1  IDiag  1:
 E= -264.506015596646     Delta-E=        0.002048980851 Rises=F Damp=T
 DIIS: error= 3.14D-02 at cycle   2 NSaved=   2.
 NSaved= 2 IEnMin= 1 EnMin= -264.508064577497     IErMin= 2 ErrMin= 3.14D-02
 ErrMax= 3.14D-02  0.00D+00 EMaxC= 1.00D-01 BMatC= 7.08D-02 BMatP= 2.33D-01
 IDIUse=3 WtCom= 6.86D-01 WtEn= 3.14D-01
 Coeff-Com:  0.332D+00 0.668D+00
 Coeff-En:   0.504D+00 0.496D+00
 Coeff:      0.386D+00 0.614D+00
 Gap=     0.242 Goal=   None    Shift=    0.000
 RMSDP=5.00D-03 MaxDP=1.45D-01 DE= 2.05D-03 OVMax= 2.71D-01

 Cycle   3  Pass 1  IDiag  1:
 E= -264.653694960845     Delta-E=       -0.147679364200 Rises=F Damp=F
 DIIS: error= 1.68D-02 at cycle   3 NSaved=   3.
 NSaved= 3 IEnMin= 3 EnMin= -264.653694960845     IErMin= 3 ErrMin= 1.68D-02
 ErrMax= 1.68D-02  0.00D+00 EMaxC= 1.00D-01 BMatC= 4.26D-02 BMatP= 7.08D-02
 IDIUse=3 WtCom= 8.32D-01 WtEn= 1.68D-01
 Coeff-Com:  0.202D+00 0.420D+00 0.377D+00
 Coeff-En:   0.683D-02 0.000D+00 0.993D+00
 Coeff:      0.169D+00 0.350D+00 0.481D+00
 Gap=     0.253 Goal=   None    Shift=    0.000
 RMSDP=1.56D-03 MaxDP=2.77D-02 DE=-1.48D-01 OVMax= 9.77D-02

 Cycle   4  Pass 1  IDiag  1:
 E= -264.680810333395     Delta-E=       -0.027115372550 Rises=F Damp=F
 DIIS: error= 1.06D-02 at cycle   4 NSaved=   4.
 NSaved= 4 IEnMin= 4 EnMin= -264.680810333395     IErMin= 4 ErrMin= 1.06D-02
 ErrMax= 1.06D-02  0.00D+00 EMaxC= 1.00D-01 BMatC= 1.13D-02 BMatP= 4.26D-02
 IDIUse=3 WtCom= 8.94D-01 WtEn= 1.06D-01
 Coeff-Com:  0.429D-01 0.538D-01 0.332D+00 0.571D+00
 Coeff-En:   0.000D+00 0.000D+00 0.248D+00 0.752D+00
 Coeff:      0.384D-01 0.480D-01 0.323D+00 0.590D+00
 Gap=     0.239 Goal=   None    Shift=    0.000
 RMSDP=6.14D-04 MaxDP=1.13D-02 DE=-2.71D-02 OVMax= 3.76D-02

 Cycle   5  Pass 1  IDiag  1:
 E= -264.689348034781     Delta-E=       -0.008537701386 Rises=F Damp=F
 DIIS: error= 1.40D-03 at cycle   5 NSaved=   5.
 NSaved= 5 IEnMin= 5 EnMin= -264.689348034781     IErMin= 5 ErrMin= 1.40D-03
 ErrMax= 1.40D-03  0.00D+00 EMaxC= 1.00D-01 BMatC= 2.94D-04 BMatP= 1.13D-02
 IDIUse=3 WtCom= 9.86D-01 WtEn= 1.40D-02
 Coeff-Com:  0.114D-01 0.820D-02 0.154D+00 0.323D+00 0.504D+00
 Coeff-En:   0.000D+00 0.000D+00 0.000D+00 0.000D+00 0.100D+01
 Coeff:      0.112D-01 0.808D-02 0.152D+00 0.318D+00 0.511D+00
 Gap=     0.238 Goal=   None    Shift=    0.000
 RMSDP=1.27D-04 MaxDP=2.21D-03 DE=-8.54D-03 OVMax= 5.22D-03

 Cycle   6  Pass 1  IDiag  1:
 E= -264.689579664911     Delta-E=       -0.000231630130 Rises=F Damp=F
 DIIS: error= 3.50D-04 at cycle   6 NSaved=   6.
 NSaved= 6 IEnMin= 6 EnMin= -264.689579664911     IErMin= 6 ErrMin= 3.50D-04
 ErrMax= 3.50D-04  0.00D+00 EMaxC= 1.00D-01 BMatC= 1.99D-05 BMatP= 2.94D-04
 IDIUse=3 WtCom= 9.97D-01 WtEn= 3.50D-03
 Coeff-Com:  0.259D-02-0.871D-03 0.448D-01 0.961D-01 0.259D+00 0.599D+00
 Coeff-En:   0.000D+00 0.000D+00 0.000D+00 0.000D+00 0.331D-02 0.997D+00
 Coeff:      0.259D-02-0.868D-03 0.447D-01 0.958D-01 0.258D+00 0.600D+00
 Gap=     0.237 Goal=   None    Shift=    0.000
 RMSDP=2.58D-05 MaxDP=6.42D-04 DE=-2.32D-04 OVMax= 1.76D-03

 Cycle   7  Pass 1  IDiag  1:
 E= -264.689594218090     Delta-E=       -0.000014553178 Rises=F Damp=F
 DIIS: error= 1.33D-04 at cycle   7 NSaved=   7.
 NSaved= 7 IEnMin= 7 EnMin= -264.689594218090     IErMin= 7 ErrMin= 1.33D-04
 ErrMax= 1.33D-04  0.00D+00 EMaxC= 1.00D-01 BMatC= 2.05D-06 BMatP= 1.99D-05
 IDIUse=3 WtCom= 9.99D-01 WtEn= 1.33D-03
 Coeff-Com:  0.117D-02-0.953D-03 0.188D-01 0.389D-01 0.129D+00 0.360D+00
 Coeff-Com:  0.453D+00
 Coeff-En:   0.000D+00 0.000D+00 0.000D+00 0.000D+00 0.000D+00 0.000D+00
 Coeff-En:   0.100D+01
 Coeff:      0.117D-02-0.952D-03 0.188D-01 0.389D-01 0.129D+00 0.360D+00
 Coeff:      0.453D+00
 Gap=     0.237 Goal=   None    Shift=    0.000
 RMSDP=8.78D-06 MaxDP=1.86D-04 DE=-1.46D-05 OVMax= 4.86D-04

 Cycle   8  Pass 1  IDiag  1:
 E= -264.689595758548     Delta-E=       -0.000001540458 Rises=F Damp=F
 DIIS: error= 5.00D-05 at cycle   8 NSaved=   8.
 NSaved= 8 IEnMin= 8 EnMin= -264.689595758548     IErMin= 8 ErrMin= 5.00D-05
 ErrMax= 5.00D-05  0.00D+00 EMaxC= 1.00D-01 BMatC= 1.95D-07 BMatP= 2.05D-06
 IDIUse=1 WtCom= 1.00D+00 WtEn= 0.00D+00
 Coeff-Com:  0.265D-03-0.383D-03 0.135D-02 0.129D-02 0.180D-01 0.669D-01
 Coeff-Com:  0.248D+00 0.664D+00
 Coeff:      0.265D-03-0.383D-03 0.135D-02 0.129D-02 0.180D-01 0.669D-01
 Coeff:      0.248D+00 0.664D+00
 Gap=     0.237 Goal=   None    Shift=    0.000
 RMSDP=2.44D-06 MaxDP=4.30D-05 DE=-1.54D-06 OVMax= 1.69D-04

 Cycle   9  Pass 1  IDiag  1:
 E= -264.689595915226     Delta-E=       -0.000000156678 Rises=F Damp=F
 DIIS: error= 6.17D-06 at cycle   9 NSaved=   9.
 NSaved= 9 IEnMin= 9 EnMin= -264.689595915226     IErMin= 9 ErrMin= 6.17D-06
 ErrMax= 6.17D-06  0.00D+00 EMaxC= 1.00D-01 BMatC= 3.69D-09 BMatP= 1.95D-07
 IDIUse=1 WtCom= 1.00D+00 WtEn= 0.00D+00
 Coeff-Com:  0.970D-04-0.149D-03 0.250D-03-0.753D-04 0.472D-02 0.189D-01
 Coeff-Com:  0.904D-01 0.277D+00 0.609D+00
 Coeff:      0.970D-04-0.149D-03 0.250D-03-0.753D-04 0.472D-02 0.189D-01
 Coeff:      0.904D-01 0.277D+00 0.609D+00
 Gap=     0.237 Goal=   None    Shift=    0.000
 RMSDP=5.63D-07 MaxDP=7.33D-06 DE=-1.57D-07 OVMax= 1.79D-05

 Cycle  10  Pass 1  IDiag  1:
 E= -264.689595921792     Delta-E=       -0.000000006566 Rises=F Damp=F
 DIIS: error= 2.35D-06 at cycle  10 NSaved=  10.
 NSaved=10 IEnMin=10 EnMin= -264.689595921792     IErMin=10 ErrMin= 2.35D-06
 ErrMax= 2.35D-06  0.00D+00 EMaxC= 1.00D-01 BMatC= 7.05D-10 BMatP= 3.69D-09
 IDIUse=1 WtCom= 1.00D+00 WtEn= 0.00D+00
 Coeff-Com:  0.284D-04-0.421D-04-0.506D-04-0.290D-03 0.543D-03 0.330D-02
 Coeff-Com:  0.248D-01 0.875D-01 0.339D+00 0.545D+00
 Coeff:      0.284D-04-0.421D-04-0.506D-04-0.290D-03 0.543D-03 0.330D-02
 Coeff:      0.248D-01 0.875D-01 0.339D+00 0.545D+00
 Gap=     0.237 Goal=   None    Shift=    0.000
 RMSDP=1.71D-07 MaxDP=2.56D-06 DE=-6.57D-09 OVMax= 5.81D-06

 Cycle  11  Pass 1  IDiag  1:
 E= -264.689595922407     Delta-E=       -0.000000000615 Rises=F Damp=F
 DIIS: error= 1.96D-07 at cycle  11 NSaved=  11.
 NSaved=11 IEnMin=11 EnMin= -264.689595922407     IErMin=11 ErrMin= 1.96D-07
 ErrMax= 1.96D-07  0.00D+00 EMaxC= 1.00D-01 BMatC= 5.56D-12 BMatP= 7.05D-10
 IDIUse=1 WtCom= 1.00D+00 WtEn= 0.00D+00
 Coeff-Com:  0.481D-05-0.767D-05-0.130D-04-0.516D-04-0.521D-05 0.235D-03
 Coeff-Com:  0.298D-02 0.128D-01 0.658D-01 0.141D+00 0.777D+00
 Coeff:      0.481D-05-0.767D-05-0.130D-04-0.516D-04-0.521D-05 0.235D-03
 Coeff:      0.298D-02 0.128D-01 0.658D-01 0.141D+00 0.777D+00
 Gap=     0.237 Goal=   None    Shift=    0.000
 RMSDP=2.17D-08 MaxDP=2.72D-07 DE=-6.15D-10 OVMax= 6.38D-07

 Cycle  12  Pass 1  IDiag  1:
 E= -264.689595922412     Delta-E=       -0.000000000005 Rises=F Damp=F
 DIIS: error= 6.91D-08 at cycle  12 NSaved=  12.
 NSaved=12 IEnMin=12 EnMin= -264.689595922412     IErMin=12 ErrMin= 6.91D-08
 ErrMax= 6.91D-08  0.00D+00 EMaxC= 1.00D-01 BMatC= 3.60D-13 BMatP= 5.56D-12
 IDIUse=1 WtCom= 1.00D+00 WtEn= 0.00D+00
 Coeff-Com:  0.453D-06-0.865D-06-0.155D-06-0.279D-05-0.152D-04-0.587D-04
 Coeff-Com: -0.760D-04 0.171D-03 0.485D-02 0.126D-01 0.176D+00 0.806D+00
 Coeff:      0.453D-06-0.865D-06-0.155D-06-0.279D-05-0.152D-04-0.587D-04
 Coeff:     -0.760D-04 0.171D-03 0.485D-02 0.126D-01 0.176D+00 0.806D+00
 Gap=     0.237 Goal=   None    Shift=    0.000
 RMSDP=4.33D-09 MaxDP=5.93D-08 DE=-5.46D-12 OVMax= 2.08D-07

 CoulSu:  requested number of processors reduced to:  30 ShMem   1 Linda.
 Error on total polarization charges =  0.00917
 SCF Done:  E(RB-P86) =  -264.689595922     A.U. after   12 cycles
            NFock= 12  Conv=0.43D-08     -V/T= 2.0028
 KE= 2.639443178548D+02 PE=-9.874334062530D+02 EE= 2.749608757107D+02
 Leave Link  502 at Mon Feb 22 21:28:20 2021, MaxMem=   104857600 cpu:              87.3 elap:               3.5
 (Enter /sw/arch/RedHatEnterpriseServer7/EB_production/2019/software/Gaussian/g16.c01/l601.exe)
 Copying SCF densities to generalized density rwf, IOpCl= 0 IROHF=0.

 **********************************************************************

            Population analysis using the SCF Density.

 **********************************************************************

 Orbital symmetries:
       Occupied  (A) (A) (A) (A) (A) (A) (A) (A) (A) (A) (A) (A)
                 (A) (A) (A) (A) (A) (A) (A) (A)
       Virtual   (A) (A) (A) (A) (A) (A) (A) (A) (A) (A) (A) (A)
                 (A) (A) (A) (A) (A) (A) (A) (A) (A) (A) (A) (A)
                 (A) (A) (A) (A) (A) (A) (A) (A) (A) (A) (A) (A)
                 (A) (A) (A) (A) (A) (A) (A) (A) (A) (A) (A) (A)
                 (A) (A) (A) (A) (A) (A) (A) (A) (A) (A) (A) (A)
                 (A) (A) (A) (A) (A) (A) (A) (A) (A) (A) (A) (A)
                 (A) (A) (A) (A) (A) (A) (A) (A) (A) (A) (A) (A)
                 (A) (A) (A) (A) (A) (A) (A) (A) (A) (A) (A) (A)
                 (A) (A) (A) (A) (A) (A) (A) (A) (A) (A) (A) (A)
                 (A) (A) (A)
 The electronic state is 1-A.
 Alpha  occ. eigenvalues --  -18.72100 -14.01967 -14.00854 -10.00976  -9.92334
 Alpha  occ. eigenvalues --   -0.95814  -0.85543  -0.83053  -0.65177  -0.55063
 Alpha  occ. eigenvalues --   -0.52047  -0.49463  -0.42015  -0.41529  -0.37301
 Alpha  occ. eigenvalues --   -0.35953  -0.34719  -0.23295  -0.22162  -0.21969
 Alpha virt. eigenvalues --    0.01721   0.02089   0.04830   0.06294   0.09661
 Alpha virt. eigenvalues --    0.09770   0.11285   0.14000   0.14974   0.18227
 Alpha virt. eigenvalues --    0.19378   0.22471   0.22689   0.23127   0.27364
 Alpha virt. eigenvalues --    0.30858   0.32970   0.35662   0.36209   0.37479
 Alpha virt. eigenvalues --    0.38487   0.38663   0.40296   0.44258   0.45154
 Alpha virt. eigenvalues --    0.46573   0.47255   0.50124   0.52552   0.53564
 Alpha virt. eigenvalues --    0.54778   0.54984   0.62741   0.68381   0.70704
 Alpha virt. eigenvalues --    0.73395   0.84654   1.08821   1.16684   1.17958
 Alpha virt. eigenvalues --    1.21808   1.25743   1.27123   1.28893   1.30953
 Alpha virt. eigenvalues --    1.35845   1.44139   1.44954   1.45816   1.47878
 Alpha virt. eigenvalues --    1.48840   1.51951   1.53120   1.54824   1.65928
 Alpha virt. eigenvalues --    1.69840   1.70303   1.71699   1.75263   1.77753
 Alpha virt. eigenvalues --    1.83061   1.87144   1.90182   1.94409   2.02697
 Alpha virt. eigenvalues --    2.07685   2.11474   2.13010   2.19388   2.21969
 Alpha virt. eigenvalues --    2.23175   2.25984   2.27339   2.33277   2.35266
 Alpha virt. eigenvalues --    2.40216   2.47497   2.48615   2.48979   2.52517
 Alpha virt. eigenvalues --    2.54162   2.56176   2.57277   2.59057   2.60400
 Alpha virt. eigenvalues --    2.66086   2.69386   2.69848   2.71907   2.78863
 Alpha virt. eigenvalues --    2.79298   2.83660   2.97831   3.06413   3.10141
 Alpha virt. eigenvalues --    3.14331   3.21736   3.22248   3.34282   3.37127
 Alpha virt. eigenvalues --    3.43972   3.56559   3.65642   3.83181   3.94460
 Alpha virt. eigenvalues --    4.16379  21.71475  21.77174  31.41769  31.49432
 Alpha virt. eigenvalues --   43.15072
          Condensed to atoms (all electrons):
               1          2          3          4          5          6
     1  C    4.895546   0.265511  -0.067125   0.007534   0.008661   0.420823
     2  N    0.265511   6.825564   0.284888  -0.163211  -0.145851  -0.057552
     3  C   -0.067125   0.284888   4.544480   0.374766   0.668522  -0.011990
     4  N    0.007534  -0.163211   0.374766   6.604748  -0.140596   0.000478
     5  O    0.008661  -0.145851   0.668522  -0.140596   8.071977   0.006663
     6  H    0.420823  -0.057552  -0.011990   0.000478   0.006663   0.561362
     7  H    0.374485  -0.027454   0.018818   0.000777   0.002411  -0.025034
     8  H    0.422243  -0.058467  -0.011748   0.000402   0.005432  -0.044582
     9  H   -0.032528   0.354383  -0.015785   0.003732   0.005365   0.004457
    10  H   -0.000418   0.007269  -0.015599   0.372921   0.002653  -0.000010
    11  H    0.000715   0.014098  -0.015093   0.335069   0.007499  -0.000069
               7          8          9         10         11
     1  C    0.374485   0.422243  -0.032528  -0.000418   0.000715
     2  N   -0.027454  -0.058467   0.354383   0.007269   0.014098
     3  C    0.018818  -0.011748  -0.015785  -0.015599  -0.015093
     4  N    0.000777   0.000402   0.003732   0.372921   0.335069
     5  O    0.002411   0.005432   0.005365   0.002653   0.007499
     6  H   -0.025034  -0.044582   0.004457  -0.000010  -0.000069
     7  H    0.542370  -0.025912  -0.008578   0.000010  -0.000298
     8  H   -0.025912   0.562829   0.004034  -0.000005  -0.000051
     9  H   -0.008578   0.004034   0.415041  -0.000101  -0.001584
    10  H    0.000010  -0.000005  -0.000101   0.381271  -0.018403
    11  H   -0.000298  -0.000051  -0.001584  -0.018403   0.421660
 Mulliken charges:
               1
     1  C   -0.295446
     2  N   -0.299178
     3  C    0.245865
     4  N   -0.396619
     5  O   -0.492735
     6  H    0.145454
     7  H    0.148404
     8  H    0.145826
     9  H    0.271564
    10  H    0.270412
    11  H    0.256455
 Sum of Mulliken charges =  -0.00000
 Mulliken charges with hydrogens summed into heavy atoms:
               1
     1  C    0.144237
     2  N   -0.027614
     3  C    0.245865
     4  N    0.130247
     5  O   -0.492735
 Electronic spatial extent (au):  <R**2>=            427.4910
 Charge=             -0.0000 electrons
 Dipole moment (field-independent basis, Debye):
    X=             -0.3584    Y=             -6.0020    Z=              0.0070  Tot=              6.0127
 Quadrupole moment (field-independent basis, Debye-Ang):
   XX=            -22.0365   YY=            -31.4997   ZZ=            -32.1878
   XY=             -2.6327   XZ=              0.0169   YZ=             -0.0133
 Traceless Quadrupole moment (field-independent basis, Debye-Ang):
   XX=              6.5382   YY=             -2.9250   ZZ=             -3.6132
   XY=             -2.6327   XZ=              0.0169   YZ=             -0.0133
 Octapole moment (field-independent basis, Debye-Ang**2):
  XXX=             14.3757  YYY=            -22.6543  ZZZ=              0.0455  XYY=             -0.3039
  XXY=             -6.6075  XXZ=             -0.0272  XZZ=             -0.6066  YZZ=              0.9274
  YYZ=             -0.0385  XYZ=              0.0157
 Hexadecapole moment (field-independent basis, Debye-Ang**3):
 XXXX=           -303.0902 YYYY=           -133.6870 ZZZZ=            -38.7740 XXXY=             -0.2500
 XXXZ=              0.1964 YYYX=             -9.7899 YYYZ=             -0.0473 ZZZX=             -0.0835
 ZZZY=             -0.0118 XXYY=            -77.4163 XXZZ=            -71.7419 YYZZ=            -31.2315
 XXYZ=              0.0867 YYXZ=              0.0617 ZZXY=             -0.6561
 N-N= 1.838386167651D+02 E-N=-9.874334073183D+02  KE= 2.639443178548D+02
 No NMR shielding tensors so no spin-rotation constants.
 Leave Link  601 at Mon Feb 22 21:28:20 2021, MaxMem=   104857600 cpu:               6.9 elap:               0.3
 (Enter /sw/arch/RedHatEnterpriseServer7/EB_production/2019/software/Gaussian/g16.c01/l701.exe)
 ... and contract with generalized density number  0.
 Compute integral first derivatives.
 R6Disp: Adding Grimme-D3 dispersion energy 1st derivatives to the gradient.
 PrsmSu:  requested number of processors reduced to:  30 ShMem   1 Linda.
 D1PCM: PCM CHGder 1st derivatives, ID1Alg=3 FixD1E=F DoIter=F DoCFld=F I1PDM=0.
 GePol: Maximum number of non-zero 1st derivatives   =     213
 CoulSu:  requested number of processors reduced to:  29 ShMem   1 Linda.
 CoulSu:  requested number of processors reduced to:  30 ShMem   1 Linda.
 Leave Link  701 at Mon Feb 22 21:28:21 2021, MaxMem=   104857600 cpu:              14.9 elap:               0.5
 (Enter /sw/arch/RedHatEnterpriseServer7/EB_production/2019/software/Gaussian/g16.c01/l702.exe)
 L702 exits ... SP integral derivatives will be done elsewhere.
 Leave Link  702 at Mon Feb 22 21:28:21 2021, MaxMem=   104857600 cpu:               0.6 elap:               0.0
 (Enter /sw/arch/RedHatEnterpriseServer7/EB_production/2019/software/Gaussian/g16.c01/l703.exe)
 Integral derivatives from FoFJK, PRISM(SPDF).
 Compute integral first derivatives, UseDBF=F ICtDFT=           0.
 Calling FoFJK, ICntrl=      2527 FMM=F ISym2X=0 I1Cent= 0 IOpClX= 0 NMat=1 NMatS=1 NMatT=0.
 FoFJK:  IHMeth= 1 ICntrl=    2527 DoSepK=F KAlg= 0 I1Cent=           0 FoldK=F
 IRaf=         0 NMat=       1 IRICut=       1 DoRegI=T DoRafI=F ISym2E= 0 IDoP0=0 IntGTp=1.
 FoFCou: FMM=F IPFlag=           0 FMFlag=      100000 FMFlg1=         800
         NFxFlg=           0 DoJE=F BraDBF=F KetDBF=F FulRan=T
         wScrn=  0.000000 ICntrl=      2527 IOpCl=  0 I1Cent=           0 NGrid=           0
         NMat0=    1 NMatS0=      1 NMatT0=    0 NMatD0=    1 NMtDS0=    0 NMtDT0=    0
 Symmetry not used in FoFCou.
 Leave Link  703 at Mon Feb 22 21:28:22 2021, MaxMem=   104857600 cpu:              15.4 elap:               0.6
 (Enter /sw/arch/RedHatEnterpriseServer7/EB_production/2019/software/Gaussian/g16.c01/l716.exe)
 Dipole        =-1.41009289D-01-2.36138552D+00 2.75321850D-03
 ***** Axes restored to original set *****
 -------------------------------------------------------------------
 Center     Atomic                   Forces (Hartrees/Bohr)
 Number     Number              X              Y              Z
 -------------------------------------------------------------------
      1        6          -0.002926823   -0.010161503   -0.006370262
      2        7          -0.018930959    0.000698881    0.004808866
      3        6          -0.027932846   -0.024496694   -0.010788260
      4        7           0.022017545   -0.008198847   -0.011207988
      5        8           0.000367561   -0.009102201   -0.006194564
      6        1          -0.003010926   -0.003627766   -0.005900034
      7        1           0.004761037    0.000027114   -0.001441161
      8        1          -0.001614325   -0.007971437   -0.000447257
      9        1           0.034930234    0.026018482    0.009730772
     10        1          -0.037975134    0.008883219    0.015959398
     11        1           0.030314635    0.027930753    0.011850489
 -------------------------------------------------------------------
 Cartesian Forces:  Max     0.037975134 RMS     0.016129449
 Leave Link  716 at Mon Feb 22 21:28:22 2021, MaxMem=   104857600 cpu:               1.0 elap:               0.1
 (Enter /sw/arch/RedHatEnterpriseServer7/EB_production/2019/software/Gaussian/g16.c01/l103.exe)

 GradGradGradGradGradGradGradGradGradGradGradGradGradGradGradGradGradGrad
 Berny optimization.
 FormGI is forming the generalized inverse of G from B-inverse, IUseBI=4.
 Internal  Forces:  Max     0.044615681 RMS     0.014565786
 Search for a local minimum.
 Step number   1 out of a maximum of   49
 All quantities printed in internal units (Hartrees-Bohrs-Radians)
 RMS Force = .14566D-01 SwitMx=.10000D-02 MixMth= 1
 Mixed Optimization -- RFO/linear search
 Second derivative matrix not updated -- first step.
 ITU=  0
     Eigenvalues ---    0.01406   0.01760   0.02287   0.02372   0.02464
     Eigenvalues ---    0.02464   0.07692   0.07939   0.16000   0.16000
     Eigenvalues ---    0.16000   0.16000   0.16000   0.16000   0.22000
     Eigenvalues ---    0.25000   0.25000   0.34609   0.34654   0.34955
     Eigenvalues ---    0.42222   0.53020   0.53345   0.53596   0.53974
     Eigenvalues ---    0.56843   0.82342
 RFO step:  Lambda=-1.73660639D-02 EMin= 1.40621359D-02
 Linear search not attempted -- first point.
 Iteration  1 RMS(Cart)=  0.04329315 RMS(Int)=  0.00063863
 Iteration  2 RMS(Cart)=  0.00086011 RMS(Int)=  0.00007845
 Iteration  3 RMS(Cart)=  0.00000044 RMS(Int)=  0.00007845
 ITry= 1 IFail=0 DXMaxC= 1.14D-01 DCOld= 1.00D+10 DXMaxT= 3.00D-01 DXLimC= 3.00D+00 Rises=F
 Variable       Old X    -DE/DX   Delta X   Delta X   Delta X     New X
                                 (Linear)    (Quad)   (Total)
    R1        2.68641   0.02491   0.00000   0.05666   0.05666   2.74307
    R2        2.06314   0.00638   0.00000   0.01755   0.01755   2.08069
    R3        2.05749   0.00497   0.00000   0.01355   0.01355   2.07103
    R4        2.06240   0.00692   0.00000   0.01901   0.01901   2.08141
    R5        2.56055   0.01057   0.00000   0.01897   0.01897   2.57952
    R6        1.83333   0.04462   0.00000   0.08100   0.08100   1.91433
    R7        2.53530   0.03161   0.00000   0.05396   0.05396   2.58926
    R8        2.36677   0.00582   0.00000   0.00693   0.00693   2.37369
    R9        1.83102   0.04210   0.00000   0.07609   0.07609   1.90711
   R10        1.83635   0.04239   0.00000   0.07742   0.07742   1.91376
    A1        1.92714   0.00442   0.00000   0.02464   0.02449   1.95163
    A2        1.89800  -0.00132   0.00000  -0.00731  -0.00729   1.89071
    A3        1.92735   0.00491   0.00000   0.02782   0.02766   1.95501
    A4        1.89791  -0.00158   0.00000  -0.00923  -0.00920   1.88871
    A5        1.91649  -0.00501   0.00000  -0.02848  -0.02878   1.88771
    A6        1.89632  -0.00158   0.00000  -0.00831  -0.00829   1.88803
    A7        2.17664  -0.01073   0.00000  -0.04520  -0.04520   2.13145
    A8        2.05100   0.00438   0.00000   0.01702   0.01702   2.06802
    A9        2.05552   0.00635   0.00000   0.02817   0.02817   2.08369
   A10        2.07065  -0.01195   0.00000  -0.04467  -0.04468   2.02598
   A11        2.13920  -0.00509   0.00000  -0.01902  -0.01902   2.12018
   A12        2.07332   0.01703   0.00000   0.06371   0.06371   2.13703
   A13        2.09576  -0.00604   0.00000  -0.03408  -0.03408   2.06169
   A14        2.09699   0.00903   0.00000   0.05092   0.05092   2.14791
   A15        2.09043  -0.00299   0.00000  -0.01684  -0.01684   2.07359
    D1        1.03758   0.00002   0.00000   0.00044   0.00056   1.03814
    D2       -2.10996  -0.00001   0.00000  -0.00049  -0.00037  -2.11033
    D3        3.11863  -0.00008   0.00000  -0.00064  -0.00065   3.11798
    D4       -0.02891  -0.00012   0.00000  -0.00157  -0.00157  -0.03048
    D5       -1.08532   0.00010   0.00000   0.00130   0.00117  -1.08415
    D6        2.05032   0.00007   0.00000   0.00037   0.00025   2.05057
    D7       -3.13886  -0.00017   0.00000  -0.00390  -0.00383   3.14050
    D8       -0.00222   0.00010   0.00000   0.00207   0.00200  -0.00022
    D9        0.00870  -0.00013   0.00000  -0.00293  -0.00286   0.00584
   D10       -3.13785   0.00014   0.00000   0.00304   0.00297  -3.13488
   D11       -3.13966   0.00010   0.00000   0.00287   0.00294  -3.13672
   D12       -0.00076   0.00008   0.00000   0.00221   0.00228   0.00152
   D13        0.00670  -0.00010   0.00000  -0.00264  -0.00271   0.00399
   D14       -3.13759  -0.00012   0.00000  -0.00330  -0.00337  -3.14096
         Item               Value     Threshold  Converged?
 Maximum Force            0.044616     0.000450     NO 
 RMS     Force            0.014566     0.000300     NO 
 Maximum Displacement     0.113957     0.001800     NO 
 RMS     Displacement     0.043214     0.001200     NO 
 Predicted change in Energy=-9.045746D-03
 Lowest energy point so far.  Saving SCF results.
 GradGradGradGradGradGradGradGradGradGradGradGradGradGradGradGradGradGrad

 Leave Link  103 at Mon Feb 22 21:28:23 2021, MaxMem=   104857600 cpu:              20.0 elap:               0.9
 (Enter /sw/arch/RedHatEnterpriseServer7/EB_production/2019/software/Gaussian/g16.c01/l202.exe)
                          Input orientation:                          
 ---------------------------------------------------------------------
 Center     Atomic      Atomic             Coordinates (Angstroms)
 Number     Number       Type             X           Y           Z
 ---------------------------------------------------------------------
      1          6           0        0.767651   -0.571144   -0.144043
      2          7           0        0.522101    0.571250    0.717174
      3          6           0       -0.715671    0.846419    1.222637
      4          7           0       -0.806771    1.954947    2.022793
      5          8           0       -1.706386    0.118861    0.963906
      6          1           0        0.157586   -0.531929   -1.059797
      7          1           0        1.824077   -0.562248   -0.435548
      8          1           0        0.560025   -1.524962    0.366130
      9          1           0        1.300310    1.176113    0.951144
     10          1           0       -1.707095    2.184720    2.416628
     11          1           0       -0.014565    2.548304    2.237127
 ---------------------------------------------------------------------
                    Distance matrix (angstroms):
                    1          2          3          4          5
     1  C    0.000000
     2  N    1.451569   0.000000
     3  C    2.465267   1.365024   0.000000
     4  N    3.681727   2.320595   1.370177   0.000000
     5  O    2.797234   2.287289   1.256105   2.302556   0.000000
     6  H    1.101055   2.123088   2.805695   4.076383   2.827241
     7  H    1.095942   2.075747   3.344284   4.393298   3.858309
     8  H    1.101432   2.125741   2.825677   4.089307   2.862885
     9  H    2.129804   1.013020   2.060725   2.488937   3.187188
    10  H    4.502909   3.234307   2.049289   1.009200   2.525505
    11  H    4.001598   2.550884   2.101702   1.012720   3.222661
                    6          7          8          9         10
     6  H    0.000000
     7  H    1.779830   0.000000
     8  H    1.783631   1.779700   0.000000
     9  H    2.875257   2.284544   2.861130   0.000000
    10  H    4.789859   5.305649   4.806882   3.494198   0.000000
    11  H    4.515216   4.494366   4.519101   2.294680   1.740423
                   11
    11  H    0.000000
 Stoichiometry    C2H6N2O
 Framework group  C1[X(C2H6N2O)]
 Deg. of freedom    27
 Full point group                 C1      NOp   1
 RotChk:  IX=0 Diff= 3.45D-02
 Largest Abelian subgroup         C1      NOp   1
 Largest concise Abelian subgroup C1      NOp   1
                         Standard orientation:                         
 ---------------------------------------------------------------------
 Center     Atomic      Atomic             Coordinates (Angstroms)
 Number     Number       Type             X           Y           Z
 ---------------------------------------------------------------------
      1          6           0       -1.933369   -0.050134    0.000301
      2          7           0       -0.607329   -0.640618   -0.000672
      3          6           0        0.526007    0.120198   -0.000572
      4          7           0        1.712061   -0.565848   -0.000208
      5          8           0        0.473482    1.375204    0.000135
      6          1           0       -2.096433    0.591186   -0.879723
      7          1           0       -2.671310   -0.860019   -0.024553
      8          1           0       -2.115891    0.553396    0.903401
      9          1           0       -0.528089   -1.650519    0.004675
     10          1           0        2.569508   -0.033637    0.004211
     11          1           0        1.765410   -1.577162   -0.001309
 ---------------------------------------------------------------------
 Rotational constants (GHZ):          10.3606216           4.0202572           2.9505900
 Leave Link  202 at Mon Feb 22 21:28:23 2021, MaxMem=   104857600 cpu:               0.6 elap:               0.1
 (Enter /sw/arch/RedHatEnterpriseServer7/EB_production/2019/software/Gaussian/g16.c01/l301.exe)
 Standard basis: TZVP (5D, 7F)
 Ernie: Thresh=  0.10000D-02 Tol=  0.10000D-05 Strict=F.
 There are   136 symmetry adapted cartesian basis functions of A   symmetry.
 There are   131 symmetry adapted basis functions of A   symmetry.
   131 basis functions,   223 primitive gaussians,   136 cartesian basis functions
    20 alpha electrons       20 beta electrons
       nuclear repulsion energy       181.5806153622 Hartrees.
 IExCor=  404 DFT=T Ex=B Corr=P86 ExCW=0 ScaHFX=  0.000000
 ScaDFX=  1.000000  1.000000  1.000000  1.000000 ScalE2=  1.000000  1.000000
 IRadAn=      5 IRanWt=     -1 IRanGd=            0 ICorTp=0 IEmpDi=131
 NAtoms=   11 NActive=   11 NUniq=   11 SFac= 1.00D+00 NAtFMM=   60 NAOKFM=F Big=F
 Integral buffers will be    131072 words long.
 Raffenetti 2 integral format.
 Two-electron integral symmetry is turned on.
 R6Disp:  Grimme-D3 Dispersion energy=       -0.0059562948 Hartrees.
 Nuclear repulsion after empirical dispersion term =      181.5746590674 Hartrees.
 ------------------------------------------------------------------------------
 Polarizable Continuum Model (PCM)
 =================================
 Model                : PCM.
 Atomic radii         : UFF (Universal Force Field).
 Polarization charges : Total charges.
 Charge compensation  : None.
 Solution method      : On-the-fly selection.
 Cavity type          : Scaled VdW (van der Waals Surface) (Alpha=1.100).
 Cavity algorithm     : GePol (No added spheres)
                        Default sphere list used, NSphG=   11.
                        Lebedev-Laikov grids with approx.  5.0 points / Ang**2.
                        Smoothing algorithm: York/Karplus (Gamma=1.0000).
                        Polarization charges: spherical gaussians, with
                                              point-specific exponents (IZeta= 3).
                        Self-potential: point-specific (ISelfS= 7).
                        Self-field    : sphere-specific E.n sum rule (ISelfD= 2).
 1st derivatives      : Analytical E(r).r(x)/FMM algorithm (CHGder, D1EAlg=3).
                        Cavity 1st derivative terms included.
 Solvent              : Water, Eps=  78.355300 Eps(inf)=   1.777849
 ------------------------------------------------------------------------------
 Spheres list:
 ISph  on   Nord     Re0    Alpha      Xe            Ye            Ze
    1   C      1    1.9255  1.100     -1.933369     -0.050134      0.000301
    2   N      2    1.8300  1.100     -0.607329     -0.640618     -0.000672
    3   C      3    1.9255  1.100      0.526007      0.120198     -0.000572
    4   N      4    1.8300  1.100      1.712061     -0.565848     -0.000208
    5   O      5    1.7500  1.100      0.473482      1.375204      0.000135
    6   H      6    1.4430  1.100     -2.096433      0.591186     -0.879723
    7   H      7    1.4430  1.100     -2.671310     -0.860019     -0.024553
    8   H      8    1.4430  1.100     -2.115891      0.553396      0.903401
    9   H      9    1.4430  1.100     -0.528089     -1.650519      0.004675
   10   H     10    1.4430  1.100      2.569508     -0.033637      0.004211
   11   H     11    1.4430  1.100      1.765410     -1.577162     -0.001309
 ------------------------------------------------------------------------------
 GePol: Number of generator spheres                  =      11
 GePol: Total number of spheres                      =      11
 GePol: Number of exposed spheres                    =      11 (100.00%)
 GePol: Number of points                             =    1012
 GePol: Average weight of points                     =       0.13
 GePol: Minimum weight of points                     =   0.28D-06
 GePol: Maximum weight of points                     =    0.20539
 GePol: Number of points with low weight             =      52
 GePol: Fraction of low-weight points (<1% of avg)   =       5.14%
 GePol: Cavity surface area                          =    135.655 Ang**2
 GePol: Cavity volume                                =    119.539 Ang**3
 Leave Link  301 at Mon Feb 22 21:28:23 2021, MaxMem=   104857600 cpu:               2.2 elap:               0.1
 (Enter /sw/arch/RedHatEnterpriseServer7/EB_production/2019/software/Gaussian/g16.c01/l302.exe)
 NPDir=0 NMtPBC=     1 NCelOv=     1 NCel=       1 NClECP=     1 NCelD=      1
         NCelK=      1 NCelE2=     1 NClLst=     1 CellRange=     0.0.
 One-electron integrals computed using PRISM.
 One-electron integral symmetry used in STVInt
 PrsmSu:  requested number of processors reduced to:  30 ShMem   1 Linda.
 NBasis=   131 RedAO= T EigKep=  1.14D-03  NBF=   131
 NBsUse=   131 1.00D-06 EigRej= -1.00D+00 NBFU=   131
 Precomputing XC quadrature grid using
 IXCGrd= 4 IRadAn=           5 IRanWt=          -1 IRanGd=           0 AccXCQ= 0.00D+00.
 Generated NRdTot=       0 NPtTot=           0 NUsed=           0 NTot=          32
 NSgBfM=   135   135   135   135   135 MxSgAt=    11 MxSgA2=    11.
 Leave Link  302 at Mon Feb 22 21:28:23 2021, MaxMem=   104857600 cpu:               4.8 elap:               0.2
 (Enter /sw/arch/RedHatEnterpriseServer7/EB_production/2019/software/Gaussian/g16.c01/l303.exe)
 DipDrv:  MaxL=1.
 Leave Link  303 at Mon Feb 22 21:28:23 2021, MaxMem=   104857600 cpu:               3.7 elap:               0.2
 (Enter /sw/arch/RedHatEnterpriseServer7/EB_production/2019/software/Gaussian/g16.c01/l401.exe)
 Initial guess from the checkpoint file:  "XGEGHDBEHXKFPX-UHFFFAOYSA-N.chk"
 B after Tr=     0.000000   -0.000000    0.000000
         Rot=    0.999890    0.000097    0.000013   -0.014856 Ang=   1.70 deg.
 Guess basis will be translated and rotated to current coordinates.
 JPrj=2 DoOrth=T DoCkMO=T.
 Generating alternative initial guess.
 ExpMin= 9.52D-02 ExpMax= 2.70D+04 ExpMxC= 9.22D+02 IAcc=3 IRadAn=         5 AccDes= 0.00D+00
 Harris functional with IExCor=  404 and IRadAn=       5 diagonalized for initial guess.
 HarFok:  IExCor=  404 AccDes= 0.00D+00 IRadAn=         5 IDoV= 1 UseB2=F ITyADJ=14
 ICtDFT=  3500011 ScaDFX=  1.000000  1.000000  1.000000  1.000000
 FoFCou: FMM=F IPFlag=           0 FMFlag=      100000 FMFlg1=           0
         NFxFlg=           0 DoJE=T BraDBF=F KetDBF=T FulRan=T
         wScrn=  0.000000 ICntrl=       500 IOpCl=  0 I1Cent=   200000004 NGrid=           0
         NMat0=    1 NMatS0=      1 NMatT0=    0 NMatD0=    1 NMtDS0=    0 NMtDT0=    0
 Petite list used in FoFCou.
 Harris En= -264.777369140175    
 Leave Link  401 at Mon Feb 22 21:28:24 2021, MaxMem=   104857600 cpu:               8.0 elap:               0.3
 (Enter /sw/arch/RedHatEnterpriseServer7/EB_production/2019/software/Gaussian/g16.c01/l502.exe)
 Keep J ints in memory in canonical form, NReq=68234207.
 FoFCou: FMM=F IPFlag=           0 FMFlag=           0 FMFlg1=           0
         NFxFlg=           0 DoJE=F BraDBF=F KetDBF=F FulRan=T
         wScrn=  0.000000 ICntrl=       600 IOpCl=  0 I1Cent=           0 NGrid=           0
         NMat0=    1 NMatS0=   8646 NMatT0=    0 NMatD0=    1 NMtDS0=    0 NMtDT0=    0
 Symmetry not used in FoFCou.
 Two-electron integral symmetry not used.
 Closed shell SCF:
 Using DIIS extrapolation, IDIIS=  1040.
 NGot=   104857600 LenX=    67433499 LenY=    67414562
 Requested convergence on RMS density matrix=1.00D-08 within 128 cycles.
 Requested convergence on MAX density matrix=1.00D-06.
 Requested convergence on             energy=1.00D-06.
 No special actions if energy rises.

 Cycle   1  Pass 1  IDiag  1:
 CoulSu:  requested number of processors reduced to:  31 ShMem   1 Linda.
 Inv3:  Mode=1 IEnd=     3072432.
 Iteration    1 A*A^-1 deviation from unit magnitude is 2.89D-15 for    594.
 Iteration    1 A*A^-1 deviation from orthogonality  is 2.14D-15 for    933    320.
 Iteration    1 A^-1*A deviation from unit magnitude is 2.78D-15 for    211.
 Iteration    1 A^-1*A deviation from orthogonality  is 1.55D-15 for    725    129.
 CoulSu:  requested number of processors reduced to:  31 ShMem   1 Linda.
 CoulSu:  requested number of processors reduced to:  31 ShMem   1 Linda.
 E= -264.695351959637    
 DIIS: error= 3.21D-03 at cycle   1 NSaved=   1.
 NSaved= 1 IEnMin= 1 EnMin= -264.695351959637     IErMin= 1 ErrMin= 3.21D-03
 ErrMax= 3.21D-03  0.00D+00 EMaxC= 1.00D-01 BMatC= 3.03D-03 BMatP= 3.03D-03
 IDIUse=3 WtCom= 9.68D-01 WtEn= 3.21D-02
 Coeff-Com:  0.100D+01
 Coeff-En:   0.100D+01
 Coeff:      0.100D+01
 Gap=     0.555 Goal=   None    Shift=    0.000
 GapD=    0.555 DampG=2.000 DampE=1.000 DampFc=2.0000 IDamp=-1.
 RMSDP=5.95D-04 MaxDP=8.64D-03              OVMax= 2.04D-02

 Cycle   2  Pass 1  IDiag  1:
 E= -264.696870231615     Delta-E=       -0.001518271978 Rises=F Damp=F
 DIIS: error= 3.89D-03 at cycle   2 NSaved=   2.
 NSaved= 2 IEnMin= 2 EnMin= -264.696870231615     IErMin= 1 ErrMin= 3.21D-03
 ErrMax= 3.89D-03  0.00D+00 EMaxC= 1.00D-01 BMatC= 1.88D-03 BMatP= 3.03D-03
 IDIUse=3 WtCom= 9.61D-01 WtEn= 3.89D-02
 Coeff-Com:  0.417D+00 0.583D+00
 Coeff-En:   0.166D+00 0.834D+00
 Coeff:      0.407D+00 0.593D+00
 Gap=     0.235 Goal=   None    Shift=    0.000
 RMSDP=4.54D-04 MaxDP=9.04D-03 DE=-1.52D-03 OVMax= 2.87D-02

 Cycle   3  Pass 1  IDiag  1:
 E= -264.696667598784     Delta-E=        0.000202632830 Rises=F Damp=F
 DIIS: error= 5.56D-03 at cycle   3 NSaved=   3.
 NSaved= 3 IEnMin= 2 EnMin= -264.696870231615     IErMin= 1 ErrMin= 3.21D-03
 ErrMax= 5.56D-03  0.00D+00 EMaxC= 1.00D-01 BMatC= 2.19D-03 BMatP= 1.88D-03
 IDIUse=3 WtCom= 1.18D-01 WtEn= 8.82D-01
 Coeff-Com:  0.640D-01 0.500D+00 0.436D+00
 Coeff-En:   0.000D+00 0.523D+00 0.477D+00
 Coeff:      0.757D-02 0.520D+00 0.472D+00
 Gap=     0.236 Goal=   None    Shift=    0.000
 RMSDP=3.25D-04 MaxDP=6.67D-03 DE= 2.03D-04 OVMax= 1.88D-02

 Cycle   4  Pass 1  IDiag  1:
 E= -264.698247186062     Delta-E=       -0.001579587277 Rises=F Damp=F
 DIIS: error= 1.31D-03 at cycle   4 NSaved=   4.
 NSaved= 4 IEnMin= 4 EnMin= -264.698247186062     IErMin= 4 ErrMin= 1.31D-03
 ErrMax= 1.31D-03  0.00D+00 EMaxC= 1.00D-01 BMatC= 1.57D-04 BMatP= 1.88D-03
 IDIUse=3 WtCom= 9.87D-01 WtEn= 1.31D-02
 Coeff-Com:  0.151D-01 0.309D+00 0.303D+00 0.373D+00
 Coeff-En:   0.000D+00 0.000D+00 0.000D+00 0.100D+01
 Coeff:      0.149D-01 0.305D+00 0.299D+00 0.381D+00
 Gap=     0.231 Goal=   None    Shift=    0.000
 RMSDP=8.26D-05 MaxDP=1.82D-03 DE=-1.58D-03 OVMax= 2.50D-03

 Cycle   5  Pass 1  IDiag  1:
 E= -264.698359419477     Delta-E=       -0.000112233415 Rises=F Damp=F
 DIIS: error= 1.45D-04 at cycle   5 NSaved=   5.
 NSaved= 5 IEnMin= 5 EnMin= -264.698359419477     IErMin= 5 ErrMin= 1.45D-04
 ErrMax= 1.45D-04  0.00D+00 EMaxC= 1.00D-01 BMatC= 2.56D-06 BMatP= 1.57D-04
 IDIUse=3 WtCom= 9.99D-01 WtEn= 1.45D-03
 Coeff-Com:  0.224D-02 0.965D-01 0.103D+00 0.170D+00 0.628D+00
 Coeff-En:   0.000D+00 0.000D+00 0.000D+00 0.000D+00 0.100D+01
 Coeff:      0.224D-02 0.963D-01 0.103D+00 0.170D+00 0.628D+00
 Gap=     0.231 Goal=   None    Shift=    0.000
 RMSDP=9.57D-06 MaxDP=2.17D-04 DE=-1.12D-04 OVMax= 5.24D-04

 Cycle   6  Pass 1  IDiag  1:
 E= -264.698360995380     Delta-E=       -0.000001575903 Rises=F Damp=F
 DIIS: error= 6.16D-05 at cycle   6 NSaved=   6.
 NSaved= 6 IEnMin= 6 EnMin= -264.698360995380     IErMin= 6 ErrMin= 6.16D-05
 ErrMax= 6.16D-05  0.00D+00 EMaxC= 1.00D-01 BMatC= 3.92D-07 BMatP= 2.56D-06
 IDIUse=1 WtCom= 1.00D+00 WtEn= 0.00D+00
 Coeff-Com:  0.250D-03 0.345D-01 0.402D-01 0.701D-01 0.359D+00 0.496D+00
 Coeff:      0.250D-03 0.345D-01 0.402D-01 0.701D-01 0.359D+00 0.496D+00
 Gap=     0.231 Goal=   None    Shift=    0.000
 RMSDP=4.03D-06 MaxDP=6.50D-05 DE=-1.58D-06 OVMax= 1.94D-04

 Cycle   7  Pass 1  IDiag  1:
 E= -264.698361323221     Delta-E=       -0.000000327841 Rises=F Damp=F
 DIIS: error= 1.24D-05 at cycle   7 NSaved=   7.
 NSaved= 7 IEnMin= 7 EnMin= -264.698361323221     IErMin= 7 ErrMin= 1.24D-05
 ErrMax= 1.24D-05  0.00D+00 EMaxC= 1.00D-01 BMatC= 2.15D-08 BMatP= 3.92D-07
 IDIUse=1 WtCom= 1.00D+00 WtEn= 0.00D+00
 Coeff-Com: -0.503D-04 0.953D-02 0.124D-01 0.213D-01 0.132D+00 0.255D+00
 Coeff-Com:  0.570D+00
 Coeff:     -0.503D-04 0.953D-02 0.124D-01 0.213D-01 0.132D+00 0.255D+00
 Coeff:      0.570D+00
 Gap=     0.231 Goal=   None    Shift=    0.000
 RMSDP=1.05D-06 MaxDP=2.17D-05 DE=-3.28D-07 OVMax= 5.94D-05

 Cycle   8  Pass 1  IDiag  1:
 E= -264.698361346316     Delta-E=       -0.000000023095 Rises=F Damp=F
 DIIS: error= 7.00D-06 at cycle   8 NSaved=   8.
 NSaved= 8 IEnMin= 8 EnMin= -264.698361346316     IErMin= 8 ErrMin= 7.00D-06
 ErrMax= 7.00D-06  0.00D+00 EMaxC= 1.00D-01 BMatC= 5.64D-09 BMatP= 2.15D-08
 IDIUse=1 WtCom= 1.00D+00 WtEn= 0.00D+00
 Coeff-Com: -0.734D-04 0.234D-02 0.367D-02 0.614D-02 0.466D-01 0.117D+00
 Coeff-Com:  0.389D+00 0.435D+00
 Coeff:     -0.734D-04 0.234D-02 0.367D-02 0.614D-02 0.466D-01 0.117D+00
 Coeff:      0.389D+00 0.435D+00
 Gap=     0.231 Goal=   None    Shift=    0.000
 RMSDP=3.97D-07 MaxDP=1.01D-05 DE=-2.31D-08 OVMax= 2.99D-05

 Cycle   9  Pass 1  IDiag  1:
 E= -264.698361350877     Delta-E=       -0.000000004561 Rises=F Damp=F
 DIIS: error= 8.10D-07 at cycle   9 NSaved=   9.
 NSaved= 9 IEnMin= 9 EnMin= -264.698361350877     IErMin= 9 ErrMin= 8.10D-07
 ErrMax= 8.10D-07  0.00D+00 EMaxC= 1.00D-01 BMatC= 6.89D-11 BMatP= 5.64D-09
 IDIUse=1 WtCom= 1.00D+00 WtEn= 0.00D+00
 Coeff-Com: -0.141D-04 0.231D-03 0.406D-03 0.803D-03 0.623D-02 0.211D-01
 Coeff-Com:  0.821D-01 0.141D+00 0.748D+00
 Coeff:     -0.141D-04 0.231D-03 0.406D-03 0.803D-03 0.623D-02 0.211D-01
 Coeff:      0.821D-01 0.141D+00 0.748D+00
 Gap=     0.231 Goal=   None    Shift=    0.000
 RMSDP=7.42D-08 MaxDP=1.35D-06 DE=-4.56D-09 OVMax= 3.54D-06

 Cycle  10  Pass 1  IDiag  1:
 E= -264.698361350940     Delta-E=       -0.000000000063 Rises=F Damp=F
 DIIS: error= 1.16D-07 at cycle  10 NSaved=  10.
 NSaved=10 IEnMin=10 EnMin= -264.698361350940     IErMin=10 ErrMin= 1.16D-07
 ErrMax= 1.16D-07  0.00D+00 EMaxC= 1.00D-01 BMatC= 1.40D-12 BMatP= 6.89D-11
 IDIUse=1 WtCom= 1.00D+00 WtEn= 0.00D+00
 Coeff-Com: -0.102D-05-0.977D-05-0.153D-04 0.351D-04 0.171D-03 0.183D-02
 Coeff-Com:  0.967D-02 0.223D-01 0.201D+00 0.765D+00
 Coeff:     -0.102D-05-0.977D-05-0.153D-04 0.351D-04 0.171D-03 0.183D-02
 Coeff:      0.967D-02 0.223D-01 0.201D+00 0.765D+00
 Gap=     0.231 Goal=   None    Shift=    0.000
 RMSDP=9.84D-09 MaxDP=1.39D-07 DE=-6.26D-11 OVMax= 3.97D-07

 CoulSu:  requested number of processors reduced to:  30 ShMem   1 Linda.
 Error on total polarization charges =  0.00943
 SCF Done:  E(RB-P86) =  -264.698361351     A.U. after   10 cycles
            NFock= 10  Conv=0.98D-08     -V/T= 2.0045
 KE= 2.635151024786D+02 PE=-9.826964805883D+02 EE= 2.729083576914D+02
 Leave Link  502 at Mon Feb 22 21:28:27 2021, MaxMem=   104857600 cpu:              76.3 elap:               3.0
 (Enter /sw/arch/RedHatEnterpriseServer7/EB_production/2019/software/Gaussian/g16.c01/l701.exe)
 ... and contract with generalized density number  0.
 Compute integral first derivatives.
 R6Disp: Adding Grimme-D3 dispersion energy 1st derivatives to the gradient.
 PrsmSu:  requested number of processors reduced to:  30 ShMem   1 Linda.
 D1PCM: PCM CHGder 1st derivatives, ID1Alg=3 FixD1E=F DoIter=F DoCFld=F I1PDM=0.
 GePol: Maximum number of non-zero 1st derivatives   =     216
 CoulSu:  requested number of processors reduced to:  29 ShMem   1 Linda.
 CoulSu:  requested number of processors reduced to:  30 ShMem   1 Linda.
 Leave Link  701 at Mon Feb 22 21:28:27 2021, MaxMem=   104857600 cpu:              15.5 elap:               0.5
 (Enter /sw/arch/RedHatEnterpriseServer7/EB_production/2019/software/Gaussian/g16.c01/l702.exe)
 L702 exits ... SP integral derivatives will be done elsewhere.
 Leave Link  702 at Mon Feb 22 21:28:27 2021, MaxMem=   104857600 cpu:               0.5 elap:               0.0
 (Enter /sw/arch/RedHatEnterpriseServer7/EB_production/2019/software/Gaussian/g16.c01/l703.exe)
 Integral derivatives from FoFJK, PRISM(SPDF).
 Compute integral first derivatives, UseDBF=F ICtDFT=           0.
 Calling FoFJK, ICntrl=      2527 FMM=F ISym2X=0 I1Cent= 0 IOpClX= 0 NMat=1 NMatS=1 NMatT=0.
 FoFJK:  IHMeth= 1 ICntrl=    2527 DoSepK=F KAlg= 0 I1Cent=           0 FoldK=F
 IRaf=         0 NMat=       1 IRICut=       1 DoRegI=T DoRafI=F ISym2E= 0 IDoP0=0 IntGTp=1.
 FoFCou: FMM=F IPFlag=           0 FMFlag=      100000 FMFlg1=         800
         NFxFlg=           0 DoJE=F BraDBF=F KetDBF=F FulRan=T
         wScrn=  0.000000 ICntrl=      2527 IOpCl=  0 I1Cent=           0 NGrid=           0
         NMat0=    1 NMatS0=      1 NMatT0=    0 NMatD0=    1 NMtDS0=    0 NMtDT0=    0
 Symmetry not used in FoFCou.
 Leave Link  703 at Mon Feb 22 21:28:28 2021, MaxMem=   104857600 cpu:              14.1 elap:               0.5
 (Enter /sw/arch/RedHatEnterpriseServer7/EB_production/2019/software/Gaussian/g16.c01/l716.exe)
 Dipole        =-7.67509883D-03-2.31825218D+00 4.43492445D-03
 ***** Axes restored to original set *****
 -------------------------------------------------------------------
 Center     Atomic                   Forces (Hartrees/Bohr)
 Number     Number              X              Y              Z
 -------------------------------------------------------------------
      1        6           0.000629610   -0.002520612   -0.001918097
      2        7           0.003181855    0.002440722    0.000691863
      3        6          -0.010056343   -0.010569809   -0.004493408
      4        7           0.001456506    0.000694507    0.000022186
      5        8           0.005674534    0.006400566    0.002913031
      6        1          -0.000702042    0.000473749    0.000402248
      7        1           0.000708107    0.000335214    0.000005297
      8        1          -0.000725749    0.000342785    0.000611157
      9        1           0.002179975    0.000242777   -0.000334730
     10        1          -0.002359040    0.000904767    0.001216458
     11        1           0.000012586    0.001255333    0.000883994
 -------------------------------------------------------------------
 Cartesian Forces:  Max     0.010569809 RMS     0.003311793
 Leave Link  716 at Mon Feb 22 21:28:28 2021, MaxMem=   104857600 cpu:               0.7 elap:               0.1
 (Enter /sw/arch/RedHatEnterpriseServer7/EB_production/2019/software/Gaussian/g16.c01/l103.exe)

 GradGradGradGradGradGradGradGradGradGradGradGradGradGradGradGradGradGrad
 Berny optimization.
 Using GEDIIS/GDIIS optimizer.
 FormGI is forming the generalized inverse of G from B-inverse, IUseBI=4.
 Internal  Forces:  Max     0.008785166 RMS     0.002035752
 Search for a local minimum.
 Step number   2 out of a maximum of   49
 All quantities printed in internal units (Hartrees-Bohrs-Radians)
 RMS Force = .20358D-02 SwitMx=.10000D-02 MixMth= 1
 Mixed Optimization -- RFO/linear search
 Update second derivatives using D2CorX and points    1    2
 DE= -8.77D-03 DEPred=-9.05D-03 R= 9.69D-01
 TightC=F SS=  1.41D+00  RLast= 2.04D-01 DXNew= 5.0454D-01 6.1320D-01
 Trust test= 9.69D-01 RLast= 2.04D-01 DXMaxT set to 5.05D-01
 ITU=  1  0
 Use linear search instead of GDIIS.
     Eigenvalues ---    0.01406   0.01762   0.02287   0.02377   0.02464
     Eigenvalues ---    0.02464   0.07438   0.07859   0.15803   0.16000
     Eigenvalues ---    0.16000   0.16000   0.16000   0.16294   0.21628
     Eigenvalues ---    0.24950   0.26078   0.34621   0.34678   0.34926
     Eigenvalues ---    0.41953   0.50507   0.53159   0.53511   0.55008
     Eigenvalues ---    0.56387   0.84048
 RFO step:  Lambda=-3.63415926D-04 EMin= 1.40621411D-02
 Quartic linear search produced a step of  0.04778.
 Iteration  1 RMS(Cart)=  0.01300018 RMS(Int)=  0.00008276
 Iteration  2 RMS(Cart)=  0.00011197 RMS(Int)=  0.00001882
 Iteration  3 RMS(Cart)=  0.00000001 RMS(Int)=  0.00001882
 ITry= 1 IFail=0 DXMaxC= 3.94D-02 DCOld= 1.00D+10 DXMaxT= 5.05D-01 DXLimC= 3.00D+00 Rises=F
 Variable       Old X    -DE/DX   Delta X   Delta X   Delta X     New X
                                 (Linear)    (Quad)   (Total)
    R1        2.74307   0.00160   0.00271   0.00261   0.00532   2.74839
    R2        2.08069   0.00008   0.00084  -0.00018   0.00066   2.08135
    R3        2.07103   0.00068   0.00065   0.00172   0.00237   2.07340
    R4        2.08141   0.00012   0.00091  -0.00007   0.00083   2.08224
    R5        2.57952   0.00470   0.00091   0.00866   0.00957   2.58909
    R6        1.91433   0.00174   0.00387   0.00144   0.00531   1.91964
    R7        2.58926   0.00361   0.00258   0.00533   0.00791   2.59717
    R8        2.37369  -0.00879   0.00033  -0.01135  -0.01102   2.36268
    R9        1.90711   0.00278   0.00364   0.00357   0.00721   1.91432
   R10        1.91376   0.00094   0.00370  -0.00004   0.00366   1.91742
    A1        1.95163  -0.00101   0.00117  -0.00807  -0.00693   1.94470
    A2        1.89071   0.00005  -0.00035   0.00229   0.00195   1.89266
    A3        1.95501  -0.00107   0.00132  -0.00847  -0.00719   1.94783
    A4        1.88871   0.00076  -0.00044   0.00683   0.00640   1.89511
    A5        1.88771   0.00058  -0.00138   0.00108  -0.00037   1.88734
    A6        1.88803   0.00082  -0.00040   0.00735   0.00696   1.89499
    A7        2.13145  -0.00267  -0.00216  -0.01172  -0.01388   2.11757
    A8        2.06802   0.00002   0.00081  -0.00265  -0.00184   2.06619
    A9        2.08369   0.00265   0.00135   0.01436   0.01570   2.09940
   A10        2.02598   0.00054  -0.00213   0.00323   0.00109   2.02707
   A11        2.12018   0.00226  -0.00091   0.00986   0.00895   2.12913
   A12        2.13703  -0.00279   0.00304  -0.01309  -0.01004   2.12699
   A13        2.06169  -0.00035  -0.00163  -0.00165  -0.00327   2.05841
   A14        2.14791   0.00134   0.00243   0.00776   0.01019   2.15810
   A15        2.07359  -0.00099  -0.00080  -0.00611  -0.00692   2.06667
    D1        1.03814  -0.00035   0.00003  -0.00405  -0.00399   1.03415
    D2       -2.11033  -0.00038  -0.00002  -0.00579  -0.00577  -2.11610
    D3        3.11798   0.00001  -0.00003   0.00100   0.00097   3.11895
    D4       -0.03048  -0.00002  -0.00008  -0.00074  -0.00081  -0.03129
    D5       -1.08415   0.00040   0.00006   0.00646   0.00648  -1.07767
    D6        2.05057   0.00037   0.00001   0.00472   0.00470   2.05527
    D7        3.14050   0.00002  -0.00018   0.00063   0.00046   3.14096
    D8       -0.00022  -0.00008   0.00010  -0.00346  -0.00339  -0.00361
    D9        0.00584   0.00006  -0.00014   0.00245   0.00234   0.00818
   D10       -3.13488  -0.00004   0.00014  -0.00164  -0.00151  -3.13639
   D11       -3.13672  -0.00006   0.00014  -0.00263  -0.00248  -3.13920
   D12        0.00152  -0.00005   0.00011  -0.00224  -0.00212  -0.00060
   D13        0.00399   0.00004  -0.00013   0.00152   0.00137   0.00536
   D14       -3.14096   0.00005  -0.00016   0.00191   0.00174  -3.13922
         Item               Value     Threshold  Converged?
 Maximum Force            0.008785     0.000450     NO 
 RMS     Force            0.002036     0.000300     NO 
 Maximum Displacement     0.039398     0.001800     NO 
 RMS     Displacement     0.013041     0.001200     NO 
 Predicted change in Energy=-1.959048D-04
 Lowest energy point so far.  Saving SCF results.
 GradGradGradGradGradGradGradGradGradGradGradGradGradGradGradGradGradGrad

 Leave Link  103 at Mon Feb 22 21:28:28 2021, MaxMem=   104857600 cpu:               4.9 elap:               0.2
 (Enter /sw/arch/RedHatEnterpriseServer7/EB_production/2019/software/Gaussian/g16.c01/l202.exe)
                          Input orientation:                          
 ---------------------------------------------------------------------
 Center     Atomic      Atomic             Coordinates (Angstroms)
 Number     Number       Type             X           Y           Z
 ---------------------------------------------------------------------
      1          6           0        0.769057   -0.573369   -0.146107
      2          7           0        0.534555    0.574387    0.715810
      3          6           0       -0.710321    0.843481    1.220797
      4          7           0       -0.810922    1.954310    2.023797
      5          8           0       -1.699222    0.122822    0.964066
      6          1           0        0.147799   -0.527942   -1.054439
      7          1           0        1.824941   -0.573481   -0.444345
      8          1           0        0.550527   -1.521037    0.371867
      9          1           0        1.321158    1.174933    0.944952
     10          1           0       -1.718896    2.177494    2.413626
     11          1           0       -0.027417    2.558730    2.248124
 ---------------------------------------------------------------------
                    Distance matrix (angstroms):
                    1          2          3          4          5
     1  C    0.000000
     2  N    1.454385   0.000000
     3  C    2.462610   1.370087   0.000000
     4  N    3.687000   2.329232   1.374361   0.000000
     5  O    2.794561   2.292445   1.250275   2.294875   0.000000
     6  H    1.101405   2.120965   2.791750   4.068938   2.812356
     7  H    1.097195   2.080542   3.347839   4.407859   3.858521
     8  H    1.101874   2.123524   2.810936   4.081721   2.848568
     9  H    2.133491   1.015827   2.076742   2.513384   3.198437
    10  H    4.506595   3.245085   2.054181   1.013014   2.514615
    11  H    4.022034   2.569322   2.112779   1.014655   3.221395
                    6          7          8          9         10
     6  H    0.000000
     7  H    1.785243   0.000000
     8  H    1.784034   1.785552   0.000000
     9  H    2.876477   2.289299   2.861914   0.000000
    10  H    4.778223   5.319271   4.795643   3.521941   0.000000
    11  H    4.523844   4.526739   4.527566   2.330624   1.741790
                   11
    11  H    0.000000
 Stoichiometry    C2H6N2O
 Framework group  C1[X(C2H6N2O)]
 Deg. of freedom    27
 Full point group                 C1      NOp   1
 RotChk:  IX=0 Diff= 2.22D-03
 Largest Abelian subgroup         C1      NOp   1
 Largest concise Abelian subgroup C1      NOp   1
                         Standard orientation:                         
 ---------------------------------------------------------------------
 Center     Atomic      Atomic             Coordinates (Angstroms)
 Number     Number       Type             X           Y           Z
 ---------------------------------------------------------------------
      1          6           0       -1.934888   -0.043819    0.000350
      2          7           0       -0.612129   -0.648421   -0.001117
      3          6           0        0.522276    0.119863    0.000631
      4          7           0        1.715503   -0.562103   -0.000224
      5          8           0        0.476068    1.369284   -0.000276
      6          1           0       -2.082889    0.602229   -0.879315
      7          1           0       -2.683141   -0.845884   -0.025056
      8          1           0       -2.102196    0.563791    0.904200
      9          1           0       -0.544444   -1.661976    0.004244
     10          1           0        2.571646   -0.020620    0.003167
     11          1           0        1.784528   -1.574407   -0.001529
 ---------------------------------------------------------------------
 Rotational constants (GHZ):          10.3933307           4.0088152           2.9470840
 Leave Link  202 at Mon Feb 22 21:28:28 2021, MaxMem=   104857600 cpu:               1.0 elap:               0.1
 (Enter /sw/arch/RedHatEnterpriseServer7/EB_production/2019/software/Gaussian/g16.c01/l301.exe)
 Standard basis: TZVP (5D, 7F)
 Ernie: Thresh=  0.10000D-02 Tol=  0.10000D-05 Strict=F.
 There are   136 symmetry adapted cartesian basis functions of A   symmetry.
 There are   131 symmetry adapted basis functions of A   symmetry.
   131 basis functions,   223 primitive gaussians,   136 cartesian basis functions
    20 alpha electrons       20 beta electrons
       nuclear repulsion energy       181.4413267045 Hartrees.
 IExCor=  404 DFT=T Ex=B Corr=P86 ExCW=0 ScaHFX=  0.000000
 ScaDFX=  1.000000  1.000000  1.000000  1.000000 ScalE2=  1.000000  1.000000
 IRadAn=      5 IRanWt=     -1 IRanGd=            0 ICorTp=0 IEmpDi=131
 NAtoms=   11 NActive=   11 NUniq=   11 SFac= 1.00D+00 NAtFMM=   60 NAOKFM=F Big=F
 Integral buffers will be    131072 words long.
 Raffenetti 2 integral format.
 Two-electron integral symmetry is turned on.
 R6Disp:  Grimme-D3 Dispersion energy=       -0.0059954834 Hartrees.
 Nuclear repulsion after empirical dispersion term =      181.4353312211 Hartrees.
 ------------------------------------------------------------------------------
 Polarizable Continuum Model (PCM)
 =================================
 Model                : PCM.
[...]
 ! A12   A(4,3,5)              121.9341                                         !
 ! A13   A(3,4,10)             113.967                                          !
 ! A14   A(3,4,11)             119.0997                                         !
 ! A15   A(10,4,11)            114.0358                                         !
 ! D1    D(6,1,2,3)             48.3697                                         !
 ! D2    D(6,1,2,9)           -152.8117                                         !
 ! D3    D(7,1,2,3)            167.1608                                         !
 ! D4    D(7,1,2,9)            -34.0205                                         !
 ! D5    D(8,1,2,3)            -72.1689                                         !
 ! D6    D(8,1,2,9)             86.6497                                         !
 ! D7    D(1,2,3,4)            169.8208                                         !
 ! D8    D(1,2,3,5)             -8.7795                                         !
 ! D9    D(9,2,3,4)             11.2963                                         !
 ! D10   D(9,2,3,5)           -167.304                                          !
 ! D11   D(2,3,4,10)           162.7337                                         !
 ! D12   D(2,3,4,11)            23.4846                                         !
 ! D13   D(5,3,4,10)           -18.6548                                         !
 ! D14   D(5,3,4,11)          -157.9039                                         !
 --------------------------------------------------------------------------------
                          Input orientation:                          
 ---------------------------------------------------------------------
 Center     Atomic      Atomic             Coordinates (Angstroms)
 Number     Number       Type             X           Y           Z
 ---------------------------------------------------------------------
      1          6           0        0.775964   -0.564752   -0.147526
      2          7           0        0.533372    0.602397    0.692672
      3          6           0       -0.717627    0.858114    1.197397
      4          7           0       -0.779819    1.863554    2.154808
      5          8           0       -1.726375    0.219915    0.846879
      6          1           0        0.008704   -0.621889   -0.930514
      7          1           0        1.758719   -0.457441   -0.623359
      8          1           0        0.756754   -1.507043    0.426490
      9          1           0        1.338156    1.016988    1.154473
     10          1           0       -1.715977    2.227092    2.311550
     11          1           0       -0.050611    2.573395    2.175280
 ---------------------------------------------------------------------
                    Distance matrix (angstroms):
                    1          2          3          4          5
     1  C    0.000000
     2  N    1.458430   0.000000
     3  C    2.462555   1.373003   0.000000
     4  N    3.690240   2.335130   1.389752   0.000000
     5  O    2.804682   2.297070   1.244080   2.303952   0.000000
     6  H    1.097735   2.099734   2.691835   4.039605   2.622644
     7  H    1.097152   2.087264   3.343371   4.421471   3.842694
     8  H    1.103529   2.137869   2.891723   4.087671   3.053692
     9  H    2.124421   1.016279   2.062359   2.490615   3.181398
    10  H    4.477858   3.212472   2.027841   1.016425   2.484779
    11  H    3.990817   2.534561   2.084072   1.017860   3.179891
                    6          7          8          9         10
     6  H    0.000000
     7  H    1.784360   0.000000
     8  H    1.784526   1.791028   0.000000
     9  H    2.966569   2.347659   2.690487   0.000000
    10  H    4.647817   5.281470   4.859178   3.482945   0.000000
    11  H    4.456380   4.504667   4.512214   2.322310   1.706441
                   11
    11  H    0.000000
 Stoichiometry    C2H6N2O
 Framework group  C1[X(C2H6N2O)]
 Deg. of freedom    27
 Full point group                 C1      NOp   1
 Largest Abelian subgroup         C1      NOp   1
 Largest concise Abelian subgroup C1      NOp   1
                         Standard orientation:                         
 ---------------------------------------------------------------------
 Center     Atomic      Atomic             Coordinates (Angstroms)
 Number     Number       Type             X           Y           Z
 ---------------------------------------------------------------------
      1          6           0       -1.936533   -0.043269    0.028689
      2          7           0       -0.613307   -0.646717   -0.080588
      3          6           0        0.519940    0.125256   -0.010258
      4          7           0        1.714209   -0.577676    0.094721
      5          8           0        0.486355    1.368880   -0.012454
      6          1           0       -2.002026    0.826145   -0.638284
      7          1           0       -2.686630   -0.782174   -0.279720
      8          1           0       -2.162942    0.289788    1.056107
      9          1           0       -0.538315   -1.640044    0.120662
     10          1           0        2.538468   -0.027201   -0.130428
     11          1           0        1.753858   -1.538725   -0.238224
 ---------------------------------------------------------------------
 Rotational constants (GHZ):          10.3210866           4.0042020           2.9496972
 Standard basis: TZVP (5D, 7F)
 There are   136 symmetry adapted cartesian basis functions of A   symmetry.
 There are   131 symmetry adapted basis functions of A   symmetry.
   131 basis functions,   223 primitive gaussians,   136 cartesian basis functions
    20 alpha electrons       20 beta electrons
       nuclear repulsion energy       181.3233898274 Hartrees.
 NAtoms=   11 NActive=   11 NUniq=   11 SFac= 1.00D+00 NAtFMM=   60 NAOKFM=F Big=F
 Integral buffers will be    131072 words long.
 Raffenetti 2 integral format.
 Two-electron integral symmetry is turned on.
 Warning! Using old PCM defaults because the COSMOthermo output has been requested.
 These settings can be overridden by following keywords.
 ------------------------------------------------------------------------------
 Polarizable Continuum Model (PCM)
 =================================
 Model                : C-PCM.
 Atomic radii         : Klamt.
 XCosmo               : -1.000 (infinite dielectric limit)
 Polarization charges : Electronic and nuclear charges.
 Charge compensation  : Type 3 (Electronic density weighted correction).
 Solution method      : On-the-fly selection.
 Cavity type          : VdW (van der Waals Surface) (Alpha=1.000).
 Cavity algorithm     : GePol (No added spheres)
                        Default sphere list used, NSphG=   11.
                        Tesserae with average area of 0.200 Ang**2.
                        Smoothing algorithm: None.
                        Polarization charges: point-like.
                        Self-potential: constant (ISelfS= 1).
                        Self-field    : global E.n sum rule (ISelfD= 3).
 Solvent              : Water, Eps=  78.355300 Eps(inf)=   1.777849
 ------------------------------------------------------------------------------
 Spheres list:
 ISph  on   Nord     Re0    Alpha      Xe            Ye            Ze
    1   C      1    2.0000  1.000     -1.936533     -0.043269      0.028689
    2   N      2    1.8300  1.000     -0.613307     -0.646717     -0.080588
    3   C      3    2.0000  1.000      0.519940      0.125256     -0.010258
    4   N      4    1.8300  1.000      1.714209     -0.577676      0.094721
    5   O      5    1.7200  1.000      0.486355      1.368880     -0.012454
    6   H      6    1.3000  1.000     -2.002026      0.826145     -0.638284
    7   H      7    1.3000  1.000     -2.686630     -0.782174     -0.279720
    8   H      8    1.3000  1.000     -2.162942      0.289788      1.056107
    9   H      9    1.3000  1.000     -0.538315     -1.640044      0.120662
   10   H     10    1.3000  1.000      2.538468     -0.027201     -0.130428
   11   H     11    1.3000  1.000      1.753858     -1.538725     -0.238224
 ------------------------------------------------------------------------------
 One-electron integrals computed using PRISM.
 PrsmSu:  requested number of processors reduced to:  30 ShMem   1 Linda.
 NBasis=   131 RedAO= T EigKep=  1.21D-03  NBF=   131
 NBsUse=   131 1.00D-06 EigRej= -1.00D+00 NBFU=   131
 Initial guess from the checkpoint file:  "XGEGHDBEHXKFPX-UHFFFAOYSA-N.chk"
 B after Tr=     0.000000   -0.000000   -0.000000
         Rot=    1.000000   -0.000000    0.000000    0.000000 Ang=   0.00 deg.
 Keep J ints in memory in canonical form, NReq=68234207.
 Requested convergence on RMS density matrix=1.00D-08 within 128 cycles.
 Requested convergence on MAX density matrix=1.00D-06.
 Requested convergence on             energy=1.00D-06.
 No special actions if energy rises.
 Inv3:  Mode=1 IEnd=     1820523.
 Iteration    1 A*A^-1 deviation from unit magnitude is 2.66D-15 for    506.
 Iteration    1 A*A^-1 deviation from orthogonality  is 1.81D-15 for    447    118.
 Iteration    1 A^-1*A deviation from unit magnitude is 2.66D-15 for    506.
 Iteration    1 A^-1*A deviation from orthogonality  is 1.87D-15 for    307    114.
 Error on nuclear    polarization charges =  0.01350
 Error on electronic polarization charges = -0.03681
 SCF Done:  E(RB-P86) =  -264.701395390     A.U. after   10 cycles
            NFock= 10  Conv=0.56D-08     -V/T= 2.0046
 --------------------------------------------------------------------
 Variational C-PCM results
 =========================
 <psi(f)|   H    |psi(f)>                     (a.u.) =    -264.673423
 <psi(f)|H+V(f)/2|psi(f)>                     (a.u.) =    -264.701395
 Total free energy in solution:
 - with all non electrostatic terms           (a.u.) =    -264.693965
 --------------------------------------------------------------------
 (Polarized solute)-Solvent               (kcal/mol) =     -17.55
 --------------------------------------------------------------------
 Cavitation energy                        (kcal/mol) =      14.74
 Dispersion energy                        (kcal/mol) =     -11.10
 Repulsion energy                         (kcal/mol) =       1.02
 Total non electrostatic                  (kcal/mol) =       4.66
 --------------------------------------------------------------------
 Partition over spheres:
 Sphere  on Atom  Surface  Charge   GEl     GCav    GDR
    1      C1      19.66  -0.003   -0.32    2.31   -1.35
    2      N2       7.28   0.022   -0.27    0.88   -0.51
    3      C3      10.79   0.024   -0.31    1.27   -0.75
    4      N4      14.56   0.047   -0.95    1.77   -1.23
    5      O5      19.50   0.328   -8.74    2.42   -1.59
    6      H6       6.35  -0.029    0.04    0.90   -0.62
    7      H7       6.50  -0.039   -0.46    0.92   -0.75
    8      H8       6.58  -0.029   -0.10    0.93   -0.77
    9      H9       7.81  -0.113   -2.78    1.10   -0.82
   10      H10      8.00  -0.101   -1.06    1.13   -0.86
   11      H11      7.93  -0.109   -2.61    1.12   -0.83
 --------------------------------------------------------------------
 - cavitation energy not included in the total energy.
 - dispersion energy not included in the total energy.
 - repulsion  energy not included in the total energy.
 After PCM corrections, the energy is  -264.701395390     a.u.
 --------------------------------------------------------------------
 Writing COSMO formatted file "XGEGHDBEHXKFPX-UHFFFAOYSA-N.cosmo"
 Recomputed dielectric energy= -0.028094 old= -0.027972 diff=-1.22D-04

 **********************************************************************

            Population analysis using the SCF Density.

 **********************************************************************

 Orbital symmetries:
       Occupied  (A) (A) (A) (A) (A) (A) (A) (A) (A) (A) (A) (A)
                 (A) (A) (A) (A) (A) (A) (A) (A)
       Virtual   (A) (A) (A) (A) (A) (A) (A) (A) (A) (A) (A) (A)
                 (A) (A) (A) (A) (A) (A) (A) (A) (A) (A) (A) (A)
                 (A) (A) (A) (A) (A) (A) (A) (A) (A) (A) (A) (A)
                 (A) (A) (A) (A) (A) (A) (A) (A) (A) (A) (A) (A)
                 (A) (A) (A) (A) (A) (A) (A) (A) (A) (A) (A) (A)
                 (A) (A) (A) (A) (A) (A) (A) (A) (A) (A) (A) (A)
                 (A) (A) (A) (A) (A) (A) (A) (A) (A) (A) (A) (A)
                 (A) (A) (A) (A) (A) (A) (A) (A) (A) (A) (A) (A)
                 (A) (A) (A) (A) (A) (A) (A) (A) (A) (A) (A) (A)
                 (A) (A) (A)
 The electronic state is 1-A.
 Alpha  occ. eigenvalues --  -18.73533 -14.02165 -14.01059 -10.01559  -9.92193
 Alpha  occ. eigenvalues --   -0.95956  -0.84640  -0.80977  -0.63650  -0.53482
 Alpha  occ. eigenvalues --   -0.49992  -0.46669  -0.40578  -0.39986  -0.38137
 Alpha  occ. eigenvalues --   -0.35349  -0.34436  -0.24456  -0.23119  -0.21891
 Alpha virt. eigenvalues --    0.00345   0.02304   0.05077   0.06848   0.09431
 Alpha virt. eigenvalues --    0.10168   0.11341   0.13057   0.14256   0.18347
 Alpha virt. eigenvalues --    0.19625   0.21715   0.22413   0.23916   0.27432
 Alpha virt. eigenvalues --    0.29766   0.32365   0.34201   0.35691   0.36763
 Alpha virt. eigenvalues --    0.37609   0.38689   0.40000   0.43484   0.44324
 Alpha virt. eigenvalues --    0.46004   0.46628   0.49594   0.50357   0.52502
 Alpha virt. eigenvalues --    0.52677   0.55851   0.56516   0.63633   0.65129
 Alpha virt. eigenvalues --    0.70556   0.83431   1.10199   1.14886   1.19055
 Alpha virt. eigenvalues --    1.21106   1.24212   1.26449   1.28339   1.29466
 Alpha virt. eigenvalues --    1.35677   1.42645   1.44744   1.46800   1.48109
 Alpha virt. eigenvalues --    1.50019   1.51548   1.54999   1.56998   1.62075
 Alpha virt. eigenvalues --    1.66687   1.70493   1.71867   1.73011   1.75891
 Alpha virt. eigenvalues --    1.86555   1.87499   1.88477   1.92554   1.99676
 Alpha virt. eigenvalues --    2.06518   2.09924   2.10916   2.14568   2.15426
 Alpha virt. eigenvalues --    2.21905   2.23351   2.26137   2.29857   2.30591
 Alpha virt. eigenvalues --    2.32496   2.38150   2.40456   2.44983   2.49956
 Alpha virt. eigenvalues --    2.52066   2.52925   2.56724   2.58975   2.59912
 Alpha virt. eigenvalues --    2.62193   2.64413   2.66874   2.68406   2.73581
 Alpha virt. eigenvalues --    2.76892   2.80417   2.97435   3.00190   3.09050
 Alpha virt. eigenvalues --    3.15225   3.19069   3.22996   3.27722   3.30631
 Alpha virt. eigenvalues --    3.35838   3.53633   3.63156   3.76660   3.80807
 Alpha virt. eigenvalues --    4.11312  21.65581  21.71637  31.35696  31.46461
 Alpha virt. eigenvalues --   43.12641
          Condensed to atoms (all electrons):
               1          2          3          4          5          6
     1  C    4.952996   0.258576  -0.065235   0.006081  -0.001452   0.396344
     2  N    0.258576   6.794488   0.317807  -0.162642  -0.140530  -0.034583
     3  C   -0.065235   0.317807   4.575315   0.355905   0.638685  -0.016594
     4  N    0.006081  -0.162642   0.355905   6.638000  -0.119319   0.001374
     5  O   -0.001452  -0.140530   0.638685  -0.119319   8.083759   0.015068
     6  H    0.396344  -0.034583  -0.016594   0.001374   0.015068   0.541502
     7  H    0.380968  -0.031240   0.015132   0.000531   0.002136  -0.019749
     8  H    0.422350  -0.060196  -0.005200   0.000013   0.001575  -0.040573
     9  H   -0.031998   0.348837  -0.020821   0.004691   0.004714   0.006471
    10  H   -0.000722   0.007084  -0.015681   0.353898   0.003037   0.000058
    11  H    0.001057   0.010070  -0.015293   0.339400   0.004864  -0.000221
               7          8          9         10         11
     1  C    0.380968   0.422350  -0.031998  -0.000722   0.001057
     2  N   -0.031240  -0.060196   0.348837   0.007084   0.010070
     3  C    0.015132  -0.005200  -0.020821  -0.015681  -0.015293
     4  N    0.000531   0.000013   0.004691   0.353898   0.339400
     5  O    0.002136   0.001575   0.004714   0.003037   0.004864
     6  H   -0.019749  -0.040573   0.006471   0.000058  -0.000221
     7  H    0.526235  -0.028848  -0.005535   0.000019  -0.000177
     8  H   -0.028848   0.558389  -0.000600  -0.000061   0.000049
     9  H   -0.005535  -0.000600   0.405978   0.000225  -0.002796
    10  H    0.000019  -0.000061   0.000225   0.401829  -0.021178
    11  H   -0.000177   0.000049  -0.002796  -0.021178   0.409963
 Mulliken charges:
               1
     1  C   -0.318963
     2  N   -0.307671
     3  C    0.235980
     4  N   -0.417931
     5  O   -0.492538
     6  H    0.150903
     7  H    0.160527
     8  H    0.153104
     9  H    0.290835
    10  H    0.271493
    11  H    0.274262
 Sum of Mulliken charges =  -0.00000
 Mulliken charges with hydrogens summed into heavy atoms:
               1
     1  C    0.145570
     2  N   -0.016836
     3  C    0.235980
     4  N    0.127823
     5  O   -0.492538
 Electronic spatial extent (au):  <R**2>=            433.7444
 Charge=             -0.0000 electrons
 Dipole moment (field-independent basis, Debye):
    X=             -0.3279    Y=             -5.8289    Z=             -0.5946  Tot=              5.8684
 Quadrupole moment (field-independent basis, Debye-Ang):
   XX=            -22.2120   YY=            -31.4414   ZZ=            -32.4599
   XY=             -2.2436   XZ=             -2.4409   YZ=              0.4098
 Traceless Quadrupole moment (field-independent basis, Debye-Ang):
   XX=              6.4924   YY=             -2.7370   ZZ=             -3.7555
   XY=             -2.2436   XZ=             -2.4409   YZ=              0.4098
 Octapole moment (field-independent basis, Debye-Ang**2):
  XXX=             12.8248  YYY=            -22.8975  ZZZ=             -0.0962  XYY=             -0.1232
  XXY=             -5.1943  XXZ=             -5.2046  XZZ=             -0.8645  YZZ=              0.9846
  YYZ=             -1.0418  XYZ=              2.2317
 Hexadecapole moment (field-independent basis, Debye-Ang**3):
 XXXX=           -309.5709 YYYY=           -137.7309 ZZZZ=            -40.5484 XXXY=              0.9094
 XXXZ=             -9.8755 YYYX=            -10.1311 YYYZ=              0.7795 ZZZX=             -3.6004
 ZZZY=              0.4288 XXYY=            -78.1561 XXZZ=            -72.4633 YYZZ=            -32.2015
 XXYZ=              4.2794 YYXZ=             -2.2897 ZZXY=             -0.1986
 N-N= 1.813233898274D+02 E-N=-9.821587372514D+02  KE= 2.634946709295D+02
 Unable to Open any file for archive entry.
 1\1\GINC-TCN1637\SP\RBP86\TZVP\C2H6N2O1\ELENAA\22-Feb-2021\0\\# BP86/T
 ZVP SCRF=COSMORS geom=CHECKPOINT guess=CHECKPOINT\\COSMO-file for #XGE
 GHDBEHXKFPX-UHFFFAOYSA-N\\0,1\C,0,0.7759635908,-0.564751819,-0.1475261
 704\N,0,0.533372295,0.6023965338,0.6926718683\C,0,-0.7176269043,0.8581
 142469,1.1973969681\N,0,-0.7798193298,1.8635536101,2.1548079293\O,0,-1
 .7263750846,0.2199147912,0.8468793762\H,0,0.0087044086,-0.6218893417,-
 0.9305140768\H,0,1.7587192685,-0.4574408819,-0.6233594572\H,0,0.756753
 6812,-1.5070425474,0.4264901016\H,0,1.3381559289,1.0169883485,1.154473
 1266\H,0,-1.7159769109,2.2270917552,2.3115503507\H,0,-0.0506109434,2.5
 733953044,2.1752799837\\Version=ES64L-G16RevC.01\State=1-A\HF=-264.701
 3954\RMSD=5.623e-09\Dipole=1.934616,1.2098136,0.3523003\Quadrupole=-1.
 2991119,2.7264421,-1.4273301,-2.4633422,-1.269081,3.2447617\PG=C01 [X(
 C2H6N2O1)]\\@
 The archive entry for this job was punched.


 Boundary, n.  In political geography, an imaginary
 line between two nations, separating the imaginary
 rights of one from the imaginary rights of another.
                               -- Ambrose Bierce
 Job cpu time:       0 days  0 hours  1 minutes 26.2 seconds.
 Elapsed time:       0 days  0 hours  0 minutes  3.6 seconds.
 File lengths (MBytes):  RWF=     17 Int=      0 D2E=      0 Chk=      5 Scr=      1
 Normal termination of Gaussian 16 at Mon Feb 22 21:31:49 2021.
