 Entering Gaussian System, Link 0=g16
 Input=XLYOFNOQVPJJNP-UHFFFAOYSA-N.gjf
 Output=XLYOFNOQVPJJNP-UHFFFAOYSA-N.log
 Initial command:
 /sw/arch/RedHatEnterpriseServer7/EB_production/2019/software/Gaussian/g16.c01/l1.exe "/scratch-local/elenaa.9715297/Gau-12739.inp" -scrdir="/scratch-local/elenaa.9715297/"
 Entering Link 1 = /sw/arch/RedHatEnterpriseServer7/EB_production/2019/software/Gaussian/g16.c01/l1.exe PID=     12740.
  
 Copyright (c) 1988-2019, Gaussian, Inc.  All Rights Reserved.
  
 This is part of the Gaussian(R) 16 program.  It is based on
 the Gaussian(R) 09 system (copyright 2009, Gaussian, Inc.),
 the Gaussian(R) 03 system (copyright 2003, Gaussian, Inc.),
 the Gaussian(R) 98 system (copyright 1998, Gaussian, Inc.),
 the Gaussian(R) 94 system (copyright 1995, Gaussian, Inc.),
 the Gaussian 92(TM) system (copyright 1992, Gaussian, Inc.),
 the Gaussian 90(TM) system (copyright 1990, Gaussian, Inc.),
 the Gaussian 88(TM) system (copyright 1988, Gaussian, Inc.),
 the Gaussian 86(TM) system (copyright 1986, Carnegie Mellon
 University), and the Gaussian 82(TM) system (copyright 1983,
 Carnegie Mellon University). Gaussian is a federally registered
 trademark of Gaussian, Inc.
  
 This software contains proprietary and confidential information,
 including trade secrets, belonging to Gaussian, Inc.
  
 This software is provided under written license and may be
 used, copied, transmitted, or stored only in accord with that
 written license.
  
 The following legend is applicable only to US Government
 contracts under FAR:
  
                    RESTRICTED RIGHTS LEGEND
  
 Use, reproduction and disclosure by the US Government is
 subject to restrictions as set forth in subparagraphs (a)
 and (c) of the Commercial Computer Software - Restricted
 Rights clause in FAR 52.227-19.
  
 Gaussian, Inc.
 340 Quinnipiac St., Bldg. 40, Wallingford CT 06492
  
  
 ---------------------------------------------------------------
 Warning -- This program may not be used in any manner that
 competes with the business of Gaussian, Inc. or will provide
 assistance to any competitor of Gaussian, Inc.  The licensee
 of this program is prohibited from giving any competitor of
 Gaussian, Inc. access to this program.  By using this program,
 the user acknowledges that Gaussian, Inc. is engaged in the
 business of creating and licensing software in the field of
 computational chemistry and represents and warrants to the
 licensee that it is not a competitor of Gaussian, Inc. and that
 it will not use this program in any manner prohibited above.
 ---------------------------------------------------------------
  

 Cite this work as:
 Gaussian 16, Revision C.01,
 M. J. Frisch, G. W. Trucks, H. B. Schlegel, G. E. Scuseria, 
 M. A. Robb, J. R. Cheeseman, G. Scalmani, V. Barone, 
 G. A. Petersson, H. Nakatsuji, X. Li, M. Caricato, A. V. Marenich, 
 J. Bloino, B. G. Janesko, R. Gomperts, B. Mennucci, H. P. Hratchian, 
 J. V. Ortiz, A. F. Izmaylov, J. L. Sonnenberg, D. Williams-Young, 
 F. Ding, F. Lipparini, F. Egidi, J. Goings, B. Peng, A. Petrone, 
 T. Henderson, D. Ranasinghe, V. G. Zakrzewski, J. Gao, N. Rega, 
 G. Zheng, W. Liang, M. Hada, M. Ehara, K. Toyota, R. Fukuda, 
 J. Hasegawa, M. Ishida, T. Nakajima, Y. Honda, O. Kitao, H. Nakai, 
 T. Vreven, K. Throssell, J. A. Montgomery, Jr., J. E. Peralta, 
 F. Ogliaro, M. J. Bearpark, J. J. Heyd, E. N. Brothers, K. N. Kudin, 
 V. N. Staroverov, T. A. Keith, R. Kobayashi, J. Normand, 
 K. Raghavachari, A. P. Rendell, J. C. Burant, S. S. Iyengar, 
 J. Tomasi, M. Cossi, J. M. Millam, M. Klene, C. Adamo, R. Cammi, 
 J. W. Ochterski, R. L. Martin, K. Morokuma, O. Farkas, 
 J. B. Foresman, and D. J. Fox, Gaussian, Inc., Wallingford CT, 2019.
 
 ******************************************
 Gaussian 16:  ES64L-G16RevC.01  3-Jul-2019
                22-Feb-2021 
 ******************************************
 %chk=XLYOFNOQVPJJNP-UHFFFAOYSA-N.chk
 %NProcShared=32
 Will use up to   32 processors via shared memory.
 -------------------------------------------------------------
 #P BP86/TZVP EmpiricalDispersion=GD3 SCRF=(Solvent=Water) Opt
 -------------------------------------------------------------
 1/18=20,19=15,26=3,38=1/1,3;
 2/9=110,12=2,17=6,18=5,40=1/2;
 3/5=19,7=101,11=2,25=1,30=1,70=2201,71=1,72=1,74=404,124=31/1,2,3;
 4//1;
 5/5=2,38=5,53=1/2;
 6/7=2,8=2,9=2,10=2,28=1/1;
 7//1,2,3,16;
 1/18=20,19=15,26=3/3(2);
 2/9=110/2;
 99//99;
 2/9=110/2;
 3/5=19,7=101,11=2,25=1,30=1,70=2205,71=1,72=1,74=404,124=31/1,2,3;
 4/5=5,16=3,69=1/1;
 5/5=2,38=5,53=1/2;
 7//1,2,3,16;
 1/18=20,19=15,26=3/3(-5);
 2/9=110/2;
 6/7=2,8=2,9=2,10=2,19=2,28=1/1;
 99/9=1/99;
 Leave Link    1 at Mon Feb 22 21:28:29 2021, MaxMem=           0 cpu:               2.0 elap:               0.1
 (Enter /sw/arch/RedHatEnterpriseServer7/EB_production/2019/software/Gaussian/g16.c01/l101.exe)
 -------------------------------------
 Particle #XLYOFNOQVPJJNP-UHFFFAOYSA-N
 -------------------------------------
 Symbolic Z-matrix:
 Charge =  0 Multiplicity = 1
 O                    -0.01314  -0.01859   0. 
 H                    -0.29943   0.91863   0. 
 H                     0.96591   0.02391   0. 
 
 ITRead=  0  0  0
 MicOpt= -1 -1 -1
 NAtoms=      3 NQM=        3 NQMF=       0 NMMI=      0 NMMIF=      0
                NMic=       0 NMicF=      0.
                    Isotopes and Nuclear Properties:
 (Nuclear quadrupole moments (NQMom) in fm**2, nuclear magnetic moments (NMagM)
  in nuclear magnetons)

  Atom         1           2           3
 IAtWgt=          16           1           1
 AtmWgt=  15.9949146   1.0078250   1.0078250
 NucSpn=           0           1           1
 AtZEff=  -0.0000000  -0.0000000  -0.0000000
 NQMom=    0.0000000   0.0000000   0.0000000
 NMagM=    0.0000000   2.7928460   2.7928460
 AtZNuc=   8.0000000   1.0000000   1.0000000
 Leave Link  101 at Mon Feb 22 21:28:29 2021, MaxMem=   104857600 cpu:               2.8 elap:               0.1
 (Enter /sw/arch/RedHatEnterpriseServer7/EB_production/2019/software/Gaussian/g16.c01/l103.exe)

 GradGradGradGradGradGradGradGradGradGradGradGradGradGradGradGradGradGrad
 Berny optimization.
 Initialization pass.
                           ----------------------------
                           !    Initial Parameters    !
                           ! (Angstroms and Degrees)  !
 --------------------------                            --------------------------
 ! Name  Definition              Value          Derivative Info.                !
 --------------------------------------------------------------------------------
 ! R1    R(1,2)                  0.98           estimate D2E/DX2                !
 ! R2    R(1,3)                  0.98           estimate D2E/DX2                !
 ! A1    A(2,1,3)              104.5006         estimate D2E/DX2                !
 --------------------------------------------------------------------------------
 Trust Radius=3.00D-01 FncErr=1.00D-07 GrdErr=1.00D-06 EigMax=2.50D+02 EigMin=1.00D-04
 Number of steps in this run=     20 maximum allowed number of steps=    100.
 GradGradGradGradGradGradGradGradGradGradGradGradGradGradGradGradGradGrad

 Leave Link  103 at Mon Feb 22 21:28:29 2021, MaxMem=   104857600 cpu:               0.4 elap:               0.0
 (Enter /sw/arch/RedHatEnterpriseServer7/EB_production/2019/software/Gaussian/g16.c01/l202.exe)
                          Input orientation:                          
 ---------------------------------------------------------------------
 Center     Atomic      Atomic             Coordinates (Angstroms)
 Number     Number       Type             X           Y           Z
 ---------------------------------------------------------------------
      1          8           0       -0.013140   -0.018590    0.000000
      2          1           0       -0.299430    0.918630    0.000000
      3          1           0        0.965910    0.023910    0.000000
 ---------------------------------------------------------------------
                    Distance matrix (angstroms):
                    1          2          3
     1  O    0.000000
     2  H    0.979971   0.000000
     3  H    0.979972   1.549713   0.000000
 Stoichiometry    H2O
 Framework group  CS[SG(H2O)]
 Deg. of freedom     3
 Full point group                 CS      NOp   2
 Largest Abelian subgroup         CS      NOp   2
 Largest concise Abelian subgroup C1      NOp   1
                         Standard orientation:                         
 ---------------------------------------------------------------------
 Center     Atomic      Atomic             Coordinates (Angstroms)
 Number     Number       Type             X           Y           Z
 ---------------------------------------------------------------------
      1          8           0       -0.000000    0.119990    0.000000
      2          1           0        0.774856   -0.479961    0.000000
      3          1           0       -0.774856   -0.479962   -0.000000
 ---------------------------------------------------------------------
 Rotational constants (GHZ):         784.3592643         417.5992545         272.5117705
 Leave Link  202 at Mon Feb 22 21:28:29 2021, MaxMem=   104857600 cpu:               1.0 elap:               0.1
 (Enter /sw/arch/RedHatEnterpriseServer7/EB_production/2019/software/Gaussian/g16.c01/l301.exe)
 Standard basis: TZVP (5D, 7F)
 Ernie: Thresh=  0.10000D-02 Tol=  0.10000D-05 Strict=F.
 There are    25 symmetry adapted cartesian basis functions of A'  symmetry.
 There are     7 symmetry adapted cartesian basis functions of A"  symmetry.
 There are    24 symmetry adapted basis functions of A'  symmetry.
 There are     7 symmetry adapted basis functions of A"  symmetry.
    31 basis functions,    51 primitive gaussians,    32 cartesian basis functions
     5 alpha electrons        5 beta electrons
       nuclear repulsion energy         8.9813467910 Hartrees.
 IExCor=  404 DFT=T Ex=B Corr=P86 ExCW=0 ScaHFX=  0.000000
 ScaDFX=  1.000000  1.000000  1.000000  1.000000 ScalE2=  1.000000  1.000000
 IRadAn=      5 IRanWt=     -1 IRanGd=            0 ICorTp=0 IEmpDi=131
 NAtoms=    3 NActive=    3 NUniq=    3 SFac= 1.00D+00 NAtFMM=   60 NAOKFM=F Big=F
 Integral buffers will be    131072 words long.
 Raffenetti 2 integral format.
 Two-electron integral symmetry is turned on.
 R6Disp:  Grimme-D3 Dispersion energy=       -0.0000102844 Hartrees.
 Nuclear repulsion after empirical dispersion term =        8.9813365067 Hartrees.
 ------------------------------------------------------------------------------
 Polarizable Continuum Model (PCM)
 =================================
 Model                : PCM.
 Atomic radii         : UFF (Universal Force Field).
 Polarization charges : Total charges.
 Charge compensation  : None.
 Solution method      : On-the-fly selection.
 Cavity type          : Scaled VdW (van der Waals Surface) (Alpha=1.100).
 Cavity algorithm     : GePol (No added spheres)
                        Default sphere list used, NSphG=    3.
                        Lebedev-Laikov grids with approx.  5.0 points / Ang**2.
                        Smoothing algorithm: York/Karplus (Gamma=1.0000).
                        Polarization charges: spherical gaussians, with
                                              point-specific exponents (IZeta= 3).
                        Self-potential: point-specific (ISelfS= 7).
                        Self-field    : sphere-specific E.n sum rule (ISelfD= 2).
 1st derivatives      : Analytical E(r).r(x)/FMM algorithm (CHGder, D1EAlg=3).
                        Cavity 1st derivative terms included.
 Solvent              : Water, Eps=  78.355300 Eps(inf)=   1.777849
 ------------------------------------------------------------------------------
 Spheres list:
 ISph  on   Nord     Re0    Alpha      Xe            Ye            Ze
    1   O      1    1.7500  1.100     -0.000000      0.119990      0.000000
    2   H      2    1.4430  1.100      0.774856     -0.479961      0.000000
    3   H      3    1.4430  1.100     -0.774856     -0.479962     -0.000000
 ------------------------------------------------------------------------------
 GePol: Number of generator spheres                  =       3
 GePol: Total number of spheres                      =       3
 GePol: Number of exposed spheres                    =       3 (100.00%)
 GePol: Number of points                             =     392
 GePol: Average weight of points                     =       0.14
 GePol: Minimum weight of points                     =   0.12D-06
 GePol: Maximum weight of points                     =    0.20212
 GePol: Number of points with low weight             =      12
 GePol: Fraction of low-weight points (<1% of avg)   =       3.06%
 GePol: Cavity surface area                          =     56.029 Ang**2
 GePol: Cavity volume                                =     37.771 Ang**3
 Leave Link  301 at Mon Feb 22 21:28:30 2021, MaxMem=   104857600 cpu:               1.9 elap:               0.1
 (Enter /sw/arch/RedHatEnterpriseServer7/EB_production/2019/software/Gaussian/g16.c01/l302.exe)
 NPDir=0 NMtPBC=     1 NCelOv=     1 NCel=       1 NClECP=     1 NCelD=      1
         NCelK=      1 NCelE2=     1 NClLst=     1 CellRange=     0.0.
 One-electron integrals computed using PRISM.
 One-electron integral symmetry used in STVInt
 PrsmSu:  requested number of processors reduced to:  30 ShMem   1 Linda.
 NBasis=    31 RedAO= T EigKep=  1.15D-02  NBF=    24     7
 NBsUse=    31 1.00D-06 EigRej= -1.00D+00 NBFU=    24     7
 Precomputing XC quadrature grid using
 IXCGrd= 4 IRadAn=           5 IRanWt=          -1 IRanGd=           0 AccXCQ= 0.00D+00.
 Generated NRdTot=       0 NPtTot=           0 NUsed=           0 NTot=          32
 NSgBfM=    32    32    32    32    32 MxSgAt=     3 MxSgA2=     3.
 Leave Link  302 at Mon Feb 22 21:28:30 2021, MaxMem=   104857600 cpu:               4.3 elap:               0.2
 (Enter /sw/arch/RedHatEnterpriseServer7/EB_production/2019/software/Gaussian/g16.c01/l303.exe)
 DipDrv:  MaxL=1.
 Leave Link  303 at Mon Feb 22 21:28:30 2021, MaxMem=   104857600 cpu:               3.6 elap:               0.2
 (Enter /sw/arch/RedHatEnterpriseServer7/EB_production/2019/software/Gaussian/g16.c01/l401.exe)
 ExpMin= 1.03D-01 ExpMax= 2.70D+04 ExpMxC= 9.22D+02 IAcc=3 IRadAn=         5 AccDes= 0.00D+00
 Harris functional with IExCor=  404 and IRadAn=       5 diagonalized for initial guess.
 HarFok:  IExCor=  404 AccDes= 0.00D+00 IRadAn=         5 IDoV= 1 UseB2=F ITyADJ=14
 ICtDFT=  3500011 ScaDFX=  1.000000  1.000000  1.000000  1.000000
 FoFCou: FMM=F IPFlag=           0 FMFlag=      100000 FMFlg1=           0
         NFxFlg=           0 DoJE=T BraDBF=F KetDBF=T FulRan=T
         wScrn=  0.000000 ICntrl=       500 IOpCl=  0 I1Cent=   200000004 NGrid=           0
         NMat0=    1 NMatS0=      1 NMatT0=    0 NMatD0=    1 NMtDS0=    0 NMtDT0=    0
 Petite list used in FoFCou.
 Harris En= -76.5055453057967    
 JPrj=0 DoOrth=F DoCkMO=F.
 Initial guess orbital symmetries:
       Occupied  (A') (A') (A') (A') (A")
       Virtual   (A') (A') (A') (A') (A") (A') (A') (A') (A') (A")
                 (A") (A') (A') (A') (A') (A') (A") (A') (A') (A')
                 (A") (A") (A') (A') (A') (A')
 The electronic state of the initial guess is 1-A'.
 Leave Link  401 at Mon Feb 22 21:28:31 2021, MaxMem=   104857600 cpu:               5.5 elap:               0.2
 (Enter /sw/arch/RedHatEnterpriseServer7/EB_production/2019/software/Gaussian/g16.c01/l502.exe)
 Keep J ints in memory in symmetry-blocked form, NReq=27767097.
 FoFCou: FMM=F IPFlag=           0 FMFlag=           0 FMFlg1=           0
         NFxFlg=           0 DoJE=F BraDBF=F KetDBF=F FulRan=T
         wScrn=  0.000000 ICntrl=       600 IOpCl=  0 I1Cent=           0 NGrid=           0
         NMat0=    1 NMatS0=    496 NMatT0=    0 NMatD0=    1 NMtDS0=    0 NMtDT0=    0
 Petite list used in FoFCou.
 Closed shell SCF:
 Using DIIS extrapolation, IDIIS=  1040.
 NGot=   104857600 LenX=   104784341 LenY=   104782876
 Requested convergence on RMS density matrix=1.00D-08 within 128 cycles.
 Requested convergence on MAX density matrix=1.00D-06.
 Requested convergence on             energy=1.00D-06.
 No special actions if energy rises.

 Cycle   1  Pass 1  IDiag  1:
 Inv3:  Mode=1 IEnd=      460992.
 Iteration    1 A*A^-1 deviation from unit magnitude is 2.89D-15 for    186.
 Iteration    1 A*A^-1 deviation from orthogonality  is 2.00D-15 for    297     95.
 Iteration    1 A^-1*A deviation from unit magnitude is 2.44D-15 for     71.
 Iteration    1 A^-1*A deviation from orthogonality  is 1.78D-15 for    271     49.
 E= -76.3930042189940    
 DIIS: error= 6.57D-02 at cycle   1 NSaved=   1.
 NSaved= 1 IEnMin= 1 EnMin= -76.3930042189940     IErMin= 1 ErrMin= 6.57D-02
 ErrMax= 6.57D-02  0.00D+00 EMaxC= 1.00D-01 BMatC= 1.04D-01 BMatP= 1.04D-01
 IDIUse=3 WtCom= 3.43D-01 WtEn= 6.57D-01
 Coeff-Com:  0.100D+01
 Coeff-En:   0.100D+01
 Coeff:      0.100D+01
 Gap=     0.125 Goal=   None    Shift=    0.000
 GapD=    0.125 DampG=1.000 DampE=0.500 DampFc=0.5000 IDamp=-1.
 Damping current iteration by 5.00D-01
 RMSDP=1.59D-02 MaxDP=1.77D-01              OVMax= 2.27D-01

 Cycle   2  Pass 1  IDiag  1:
 E= -76.3938956114470     Delta-E=       -0.000891392453 Rises=F Damp=T
 DIIS: error= 3.50D-02 at cycle   2 NSaved=   2.
 NSaved= 2 IEnMin= 2 EnMin= -76.3938956114470     IErMin= 2 ErrMin= 3.50D-02
 ErrMax= 3.50D-02  0.00D+00 EMaxC= 1.00D-01 BMatC= 2.70D-02 BMatP= 1.04D-01
 IDIUse=3 WtCom= 6.50D-01 WtEn= 3.50D-01
 Coeff-Com:  0.334D+00 0.666D+00
 Coeff-En:   0.496D+00 0.504D+00
 Coeff:      0.390D+00 0.610D+00
 Gap=     0.251 Goal=   None    Shift=    0.000
 RMSDP=2.35D-03 MaxDP=3.02D-02 DE=-8.91D-04 OVMax= 1.42D-01

 Cycle   3  Pass 1  IDiag  1:
 E= -76.4664124289820     Delta-E=       -0.072516817535 Rises=F Damp=F
 DIIS: error= 1.06D-02 at cycle   3 NSaved=   3.
 NSaved= 3 IEnMin= 3 EnMin= -76.4664124289820     IErMin= 3 ErrMin= 1.06D-02
 ErrMax= 1.06D-02  0.00D+00 EMaxC= 1.00D-01 BMatC= 2.96D-03 BMatP= 2.70D-02
 IDIUse=3 WtCom= 8.94D-01 WtEn= 1.06D-01
 Coeff-Com:  0.121D+00-0.814D-01 0.960D+00
 Coeff-En:   0.000D+00 0.000D+00 0.100D+01
 Coeff:      0.108D+00-0.728D-01 0.965D+00
 Gap=     0.275 Goal=   None    Shift=    0.000
 RMSDP=8.89D-04 MaxDP=7.86D-03 DE=-7.25D-02 OVMax= 1.35D-02

 Cycle   4  Pass 1  IDiag  1:
 E= -76.4682914534769     Delta-E=       -0.001879024495 Rises=F Damp=F
 DIIS: error= 1.25D-03 at cycle   4 NSaved=   4.
 NSaved= 4 IEnMin= 4 EnMin= -76.4682914534769     IErMin= 4 ErrMin= 1.25D-03
 ErrMax= 1.25D-03  0.00D+00 EMaxC= 1.00D-01 BMatC= 4.70D-05 BMatP= 2.96D-03
 IDIUse=3 WtCom= 9.87D-01 WtEn= 1.25D-02
 Coeff-Com:  0.191D-01-0.154D-01 0.250D+00 0.747D+00
 Coeff-En:   0.000D+00 0.000D+00 0.000D+00 0.100D+01
 Coeff:      0.188D-01-0.152D-01 0.246D+00 0.750D+00
 Gap=     0.274 Goal=   None    Shift=    0.000
 RMSDP=1.10D-04 MaxDP=9.14D-04 DE=-1.88D-03 OVMax= 1.76D-03

 Cycle   5  Pass 1  IDiag  1:
 E= -76.4683203165257     Delta-E=       -0.000028863049 Rises=F Damp=F
 DIIS: error= 1.66D-04 at cycle   5 NSaved=   5.
 NSaved= 5 IEnMin= 5 EnMin= -76.4683203165257     IErMin= 5 ErrMin= 1.66D-04
 ErrMax= 1.66D-04  0.00D+00 EMaxC= 1.00D-01 BMatC= 6.64D-07 BMatP= 4.70D-05
 IDIUse=3 WtCom= 9.98D-01 WtEn= 1.66D-03
 Coeff-Com:  0.146D-02-0.969D-03-0.296D-02 0.406D-02 0.998D+00
 Coeff-En:   0.000D+00 0.000D+00 0.000D+00 0.000D+00 0.100D+01
 Coeff:      0.146D-02-0.967D-03-0.296D-02 0.405D-02 0.998D+00
 Gap=     0.274 Goal=   None    Shift=    0.000
 RMSDP=1.34D-05 MaxDP=1.19D-04 DE=-2.89D-05 OVMax= 1.94D-04

 Cycle   6  Pass 1  IDiag  1:
 E= -76.4683207764507     Delta-E=       -0.000000459925 Rises=F Damp=F
 DIIS: error= 1.02D-06 at cycle   6 NSaved=   6.
 NSaved= 6 IEnMin= 6 EnMin= -76.4683207764507     IErMin= 6 ErrMin= 1.02D-06
 ErrMax= 1.02D-06  0.00D+00 EMaxC= 1.00D-01 BMatC= 5.10D-11 BMatP= 6.64D-07
 IDIUse=1 WtCom= 1.00D+00 WtEn= 0.00D+00
 Coeff-Com:  0.186D-04-0.660D-04-0.971D-03-0.396D-02 0.499D-01 0.955D+00
 Coeff:      0.186D-04-0.660D-04-0.971D-03-0.396D-02 0.499D-01 0.955D+00
 Gap=     0.274 Goal=   None    Shift=    0.000
 RMSDP=1.67D-07 MaxDP=1.15D-06 DE=-4.60D-07 OVMax= 2.18D-06

 Cycle   7  Pass 1  IDiag  1:
 E= -76.4683207764828     Delta-E=       -0.000000000032 Rises=F Damp=F
 DIIS: error= 2.06D-07 at cycle   7 NSaved=   7.
 NSaved= 7 IEnMin= 7 EnMin= -76.4683207764828     IErMin= 7 ErrMin= 2.06D-07
 ErrMax= 2.06D-07  0.00D+00 EMaxC= 1.00D-01 BMatC= 9.76D-13 BMatP= 5.10D-11
 IDIUse=1 WtCom= 1.00D+00 WtEn= 0.00D+00
 Coeff-Com: -0.116D-05-0.428D-05-0.226D-04-0.225D-03-0.116D-02 0.619D-01
 Coeff-Com:  0.939D+00
 Coeff:     -0.116D-05-0.428D-05-0.226D-04-0.225D-03-0.116D-02 0.619D-01
 Coeff:      0.939D+00
 Gap=     0.274 Goal=   None    Shift=    0.000
 RMSDP=2.02D-08 MaxDP=1.73D-07 DE=-3.22D-11 OVMax= 2.67D-07

 Cycle   8  Pass 1  IDiag  1:
 E= -76.4683207764835     Delta-E=       -0.000000000001 Rises=F Damp=F
 DIIS: error= 2.50D-08 at cycle   8 NSaved=   8.
 NSaved= 8 IEnMin= 8 EnMin= -76.4683207764835     IErMin= 8 ErrMin= 2.50D-08
 ErrMax= 2.50D-08  0.00D+00 EMaxC= 1.00D-01 BMatC= 1.14D-14 BMatP= 9.76D-13
 IDIUse=1 WtCom= 1.00D+00 WtEn= 0.00D+00
 Coeff-Com:  0.193D-06-0.111D-06 0.519D-05 0.573D-05-0.409D-03 0.166D-02
 Coeff-Com:  0.802D-01 0.919D+00
 Coeff:      0.193D-06-0.111D-06 0.519D-05 0.573D-05-0.409D-03 0.166D-02
 Coeff:      0.802D-01 0.919D+00
 Gap=     0.274 Goal=   None    Shift=    0.000
 RMSDP=2.19D-09 MaxDP=1.41D-08 DE=-6.96D-13 OVMax= 3.45D-08

 Error on total polarization charges =  0.00415
 SCF Done:  E(RB-P86) =  -76.4683207765     A.U. after    8 cycles
            NFock=  8  Conv=0.22D-08     -V/T= 2.0041
 KE= 7.615233558379D+01 PE=-1.988695667051D+02 EE= 3.726757383810D+01
 Leave Link  502 at Mon Feb 22 21:28:32 2021, MaxMem=   104857600 cpu:              23.6 elap:               0.8
 (Enter /sw/arch/RedHatEnterpriseServer7/EB_production/2019/software/Gaussian/g16.c01/l601.exe)
 Copying SCF densities to generalized density rwf, IOpCl= 0 IROHF=0.

 **********************************************************************

            Population analysis using the SCF Density.

 **********************************************************************

 Orbital symmetries:
       Occupied  (A') (A') (A') (A') (A")
       Virtual   (A') (A') (A') (A') (A") (A') (A') (A') (A') (A")
                 (A") (A') (A') (A') (A') (A') (A") (A') (A') (A')
                 (A") (A") (A') (A') (A') (A')
 The electronic state is 1-A'.
 Alpha  occ. eigenvalues --  -18.76988  -0.92286  -0.47691  -0.34142  -0.26460
 Alpha virt. eigenvalues --    0.00969   0.08813   0.32474   0.37557   0.38462
 Alpha virt. eigenvalues --    0.38504   0.53015   0.56459   1.24267   1.27107
 Alpha virt. eigenvalues --    1.44986   1.62686   1.86734   1.94461   2.13932
 Alpha virt. eigenvalues --    2.27008   2.44653   2.51439   2.69458   2.80880
 Alpha virt. eigenvalues --    2.84491   2.87456   3.06850   3.93068   4.26594
 Alpha virt. eigenvalues --   42.73747
          Condensed to atoms (all electrons):
               1          2          3
     1  O    7.983944   0.307937   0.307937
     2  H    0.307937   0.413722  -0.021568
     3  H    0.307937  -0.021568   0.413722
 Mulliken charges:
               1
     1  O   -0.599819
     2  H    0.299909
     3  H    0.299909
 Sum of Mulliken charges =  -0.00000
 Mulliken charges with hydrogens summed into heavy atoms:
               1
     1  O   -0.000000
 Electronic spatial extent (au):  <R**2>=             19.9503
 Charge=             -0.0000 electrons
 Dipole moment (field-independent basis, Debye):
    X=              0.0000    Y=             -2.3838    Z=             -0.0000  Tot=              2.3838
 Quadrupole moment (field-independent basis, Debye-Ang):
   XX=             -4.2592   YY=             -6.3644   ZZ=             -7.6765
   XY=              0.0000   XZ=              0.0000   YZ=              0.0000
 Traceless Quadrupole moment (field-independent basis, Debye-Ang):
   XX=              1.8408   YY=             -0.2644   ZZ=             -1.5765
   XY=              0.0000   XZ=              0.0000   YZ=              0.0000
 Octapole moment (field-independent basis, Debye-Ang**2):
  XXX=              0.0000  YYY=             -1.6986  ZZZ=             -0.0000  XYY=             -0.0000
  XXY=             -1.5121  XXZ=             -0.0000  XZZ=              0.0000  YZZ=             -0.4827
  YYZ=             -0.0000  XYZ=             -0.0000
 Hexadecapole moment (field-independent basis, Debye-Ang**3):
 XXXX=             -6.1973 YYYY=             -7.4374 ZZZZ=             -6.7098 XXXY=             -0.0000
 XXXZ=             -0.0000 YYYX=              0.0000 YYYZ=             -0.0000 ZZZX=             -0.0000
 ZZZY=             -0.0000 XXYY=             -1.9077 XXZZ=             -2.4629 YYZZ=             -2.4180
 XXYZ=              0.0000 YYXZ=              0.0000 ZZXY=             -0.0000
 N-N= 8.981336506683D+00 E-N=-1.988695673500D+02  KE= 7.615233558379D+01
 Symmetry A'   KE= 7.163806651089D+01
 Symmetry A"   KE= 4.514269072894D+00
 No NMR shielding tensors so no spin-rotation constants.
 Leave Link  601 at Mon Feb 22 21:28:32 2021, MaxMem=   104857600 cpu:               7.4 elap:               0.3
 (Enter /sw/arch/RedHatEnterpriseServer7/EB_production/2019/software/Gaussian/g16.c01/l701.exe)
 ... and contract with generalized density number  0.
 Compute integral first derivatives.
 R6Disp: Adding Grimme-D3 dispersion energy 1st derivatives to the gradient.
 PrsmSu:  requested number of processors reduced to:  30 ShMem   1 Linda.
 D1PCM: PCM CHGder 1st derivatives, ID1Alg=3 FixD1E=F DoIter=F DoCFld=F I1PDM=0.
 GePol: Maximum number of non-zero 1st derivatives   =     266
 CoulSu:  requested number of processors reduced to:  30 ShMem   1 Linda.
 CoulSu:  requested number of processors reduced to:  31 ShMem   1 Linda.
 Leave Link  701 at Mon Feb 22 21:28:33 2021, MaxMem=   104857600 cpu:              14.2 elap:               0.5
 (Enter /sw/arch/RedHatEnterpriseServer7/EB_production/2019/software/Gaussian/g16.c01/l702.exe)
 L702 exits ... SP integral derivatives will be done elsewhere.
 Leave Link  702 at Mon Feb 22 21:28:33 2021, MaxMem=   104857600 cpu:               0.7 elap:               0.1
 (Enter /sw/arch/RedHatEnterpriseServer7/EB_production/2019/software/Gaussian/g16.c01/l703.exe)
 Integral derivatives from FoFJK, PRISM(SPDF).
 Compute integral first derivatives, UseDBF=F ICtDFT=           0.
 Calling FoFJK, ICntrl=      2527 FMM=F ISym2X=1 I1Cent= 0 IOpClX= 0 NMat=1 NMatS=1 NMatT=0.
 FoFJK:  IHMeth= 1 ICntrl=    2527 DoSepK=F KAlg= 0 I1Cent=           0 FoldK=F
 IRaf=         0 NMat=       1 IRICut=       1 DoRegI=T DoRafI=F ISym2E= 1 IDoP0=0 IntGTp=1.
 FoFCou: FMM=F IPFlag=           0 FMFlag=      100000 FMFlg1=         800
         NFxFlg=           0 DoJE=F BraDBF=F KetDBF=F FulRan=T
         wScrn=  0.000000 ICntrl=      2527 IOpCl=  0 I1Cent=           0 NGrid=           0
         NMat0=    1 NMatS0=      1 NMatT0=    0 NMatD0=    1 NMtDS0=    0 NMtDT0=    0
 Petite list used in FoFCou.
 Leave Link  703 at Mon Feb 22 21:28:34 2021, MaxMem=   104857600 cpu:               4.6 elap:               0.2
 (Enter /sw/arch/RedHatEnterpriseServer7/EB_production/2019/software/Gaussian/g16.c01/l716.exe)
 Dipole        = 2.85356054D-07-9.37847752D-01-2.24574160D-32
 ***** Axes restored to original set *****
 -------------------------------------------------------------------
 Center     Atomic                   Forces (Hartrees/Bohr)
 Number     Number              X              Y              Z
 -------------------------------------------------------------------
      1        8           0.003245412    0.004588580    0.000000000
      2        1           0.003500285   -0.005916431   -0.000000000
      3        1          -0.006745697    0.001327851    0.000000000
 -------------------------------------------------------------------
 Cartesian Forces:  Max     0.006745697 RMS     0.003743313
 Leave Link  716 at Mon Feb 22 21:28:34 2021, MaxMem=   104857600 cpu:               0.7 elap:               0.1
 (Enter /sw/arch/RedHatEnterpriseServer7/EB_production/2019/software/Gaussian/g16.c01/l103.exe)

 GradGradGradGradGradGradGradGradGradGradGradGradGradGradGradGradGradGrad
 Berny optimization.
 FormGI is forming the generalized inverse of G from B-inverse, IUseBI=4.
 Internal  Forces:  Max     0.006681764 RMS     0.005723382
 Search for a local minimum.
 Step number   1 out of a maximum of   20
 All quantities printed in internal units (Hartrees-Bohrs-Radians)
 RMS Force = .57234D-02 SwitMx=.10000D-02 MixMth= 1
 Mixed Optimization -- RFO/linear search
 Second derivative matrix not updated -- first step.
 The second derivative matrix:
                          R1        R2        A1
           R1           0.51390
           R2           0.00000   0.51390
           A1           0.00000   0.00000   0.16000
 ITU=  0
     Eigenvalues ---    0.16000   0.51390   0.51390
 RFO step:  Lambda=-2.29764473D-04 EMin= 1.60000000D-01
 Linear search not attempted -- first point.
 Iteration  1 RMS(Cart)=  0.01725569 RMS(Int)=  0.00010072
 Iteration  2 RMS(Cart)=  0.00006718 RMS(Int)=  0.00000000
 Iteration  3 RMS(Cart)=  0.00000000 RMS(Int)=  0.00000000
 ITry= 1 IFail=0 DXMaxC= 1.81D-02 DCOld= 1.00D+10 DXMaxT= 3.00D-01 DXLimC= 3.00D+00 Rises=F
 ClnCor:  largest displacement from symmetrization is 2.25D-15 for atom     3.
 Variable       Old X    -DE/DX   Delta X   Delta X   Delta X     New X
                                 (Linear)    (Quad)   (Total)
    R1        1.85188  -0.00668   0.00000  -0.01299  -0.01299   1.83888
    R2        1.85188  -0.00668   0.00000  -0.01300  -0.01300   1.83888
    A1        1.82388  -0.00300   0.00000  -0.01871  -0.01871   1.80517
         Item               Value     Threshold  Converged?
 Maximum Force            0.006682     0.000450     NO 
 RMS     Force            0.005723     0.000300     NO 
 Maximum Displacement     0.018120     0.001800     NO 
 RMS     Displacement     0.017246     0.001200     NO 
 Predicted change in Energy=-1.149613D-04
 Lowest energy point so far.  Saving SCF results.
 GradGradGradGradGradGradGradGradGradGradGradGradGradGradGradGradGradGrad

 Leave Link  103 at Mon Feb 22 21:28:34 2021, MaxMem=   104857600 cpu:               0.3 elap:               0.0
 (Enter /sw/arch/RedHatEnterpriseServer7/EB_production/2019/software/Gaussian/g16.c01/l202.exe)
                          Input orientation:                          
 ---------------------------------------------------------------------
 Center     Atomic      Atomic             Coordinates (Angstroms)
 Number     Number       Type             X           Y           Z
 ---------------------------------------------------------------------
      1          8           0       -0.014280   -0.020203   -0.000000
      2          1           0       -0.289841    0.913060    0.000000
      3          1           0        0.957462    0.031093   -0.000000
 ---------------------------------------------------------------------
                    Distance matrix (angstroms):
                    1          2          3
     1  O    0.000000
     2  H    0.973095   0.000000
     3  H    0.973095   1.527622   0.000000
 Stoichiometry    H2O
 Framework group  CS[SG(H2O)]
 Deg. of freedom     3
 Full point group                 CS      NOp   2
 RotChk:  IX=0 Diff= 1.13D-06
 Largest Abelian subgroup         CS      NOp   2
 Largest concise Abelian subgroup C1      NOp   1
                         Standard orientation:                         
 ---------------------------------------------------------------------
 Center     Atomic      Atomic             Coordinates (Angstroms)
 Number     Number       Type             X           Y           Z
 ---------------------------------------------------------------------
      1          8           0       -0.000000    0.120583   -0.000000
      2          1           0        0.763811   -0.482332   -0.000000
      3          1           0       -0.763811   -0.482332    0.000000
 ---------------------------------------------------------------------
 Rotational constants (GHZ):         776.6687616         429.7641911         276.6705115
 Leave Link  202 at Mon Feb 22 21:28:34 2021, MaxMem=   104857600 cpu:               0.3 elap:               0.0
 (Enter /sw/arch/RedHatEnterpriseServer7/EB_production/2019/software/Gaussian/g16.c01/l301.exe)
 Standard basis: TZVP (5D, 7F)
 Ernie: Thresh=  0.10000D-02 Tol=  0.10000D-05 Strict=F.
 There are    25 symmetry adapted cartesian basis functions of A'  symmetry.
 There are     7 symmetry adapted cartesian basis functions of A"  symmetry.
 There are    24 symmetry adapted basis functions of A'  symmetry.
 There are     7 symmetry adapted basis functions of A"  symmetry.
    31 basis functions,    51 primitive gaussians,    32 cartesian basis functions
     5 alpha electrons        5 beta electrons
       nuclear repulsion energy         9.0473425029 Hartrees.
 IExCor=  404 DFT=T Ex=B Corr=P86 ExCW=0 ScaHFX=  0.000000
 ScaDFX=  1.000000  1.000000  1.000000  1.000000 ScalE2=  1.000000  1.000000
 IRadAn=      5 IRanWt=     -1 IRanGd=            0 ICorTp=0 IEmpDi=131
 NAtoms=    3 NActive=    3 NUniq=    3 SFac= 1.00D+00 NAtFMM=   60 NAOKFM=F Big=F
 Integral buffers will be    131072 words long.
 Raffenetti 2 integral format.
 Two-electron integral symmetry is turned on.
 R6Disp:  Grimme-D3 Dispersion energy=       -0.0000092258 Hartrees.
 Nuclear repulsion after empirical dispersion term =        9.0473332771 Hartrees.
 ------------------------------------------------------------------------------
 Polarizable Continuum Model (PCM)
 =================================
 Model                : PCM.
 Atomic radii         : UFF (Universal Force Field).
 Polarization charges : Total charges.
 Charge compensation  : None.
 Solution method      : On-the-fly selection.
 Cavity type          : Scaled VdW (van der Waals Surface) (Alpha=1.100).
 Cavity algorithm     : GePol (No added spheres)
                        Default sphere list used, NSphG=    3.
                        Lebedev-Laikov grids with approx.  5.0 points / Ang**2.
                        Smoothing algorithm: York/Karplus (Gamma=1.0000).
                        Polarization charges: spherical gaussians, with
                                              point-specific exponents (IZeta= 3).
                        Self-potential: point-specific (ISelfS= 7).
                        Self-field    : sphere-specific E.n sum rule (ISelfD= 2).
 1st derivatives      : Analytical E(r).r(x)/FMM algorithm (CHGder, D1EAlg=3).
                        Cavity 1st derivative terms included.
 Solvent              : Water, Eps=  78.355300 Eps(inf)=   1.777849
 ------------------------------------------------------------------------------
 Spheres list:
 ISph  on   Nord     Re0    Alpha      Xe            Ye            Ze
    1   O      1    1.7500  1.100     -0.000000      0.120583     -0.000000
    2   H      2    1.4430  1.100      0.763811     -0.482332      0.000000
    3   H      3    1.4430  1.100     -0.763811     -0.482332      0.000000
 ------------------------------------------------------------------------------
 GePol: Number of generator spheres                  =       3
 GePol: Total number of spheres                      =       3
 GePol: Number of exposed spheres                    =       3 (100.00%)
 GePol: Number of points                             =     388
 GePol: Average weight of points                     =       0.14
 GePol: Minimum weight of points                     =   0.11D-06
 GePol: Maximum weight of points                     =    0.20212
 GePol: Number of points with low weight             =       9
 GePol: Fraction of low-weight points (<1% of avg)   =       2.32%
 GePol: Cavity surface area                          =     55.801 Ang**2
 GePol: Cavity volume                                =     37.609 Ang**3
 Leave Link  301 at Mon Feb 22 21:28:34 2021, MaxMem=   104857600 cpu:               1.5 elap:               0.1
 (Enter /sw/arch/RedHatEnterpriseServer7/EB_production/2019/software/Gaussian/g16.c01/l302.exe)
 NPDir=0 NMtPBC=     1 NCelOv=     1 NCel=       1 NClECP=     1 NCelD=      1
         NCelK=      1 NCelE2=     1 NClLst=     1 CellRange=     0.0.
 One-electron integrals computed using PRISM.
 One-electron integral symmetry used in STVInt
 PrsmSu:  requested number of processors reduced to:  30 ShMem   1 Linda.
 NBasis=    31 RedAO= T EigKep=  1.13D-02  NBF=    24     7
 NBsUse=    31 1.00D-06 EigRej= -1.00D+00 NBFU=    24     7
 Precomputing XC quadrature grid using
 IXCGrd= 4 IRadAn=           5 IRanWt=          -1 IRanGd=           0 AccXCQ= 0.00D+00.
 Generated NRdTot=       0 NPtTot=           0 NUsed=           0 NTot=          32
 NSgBfM=    32    32    32    32    32 MxSgAt=     3 MxSgA2=     3.
 Leave Link  302 at Mon Feb 22 21:28:34 2021, MaxMem=   104857600 cpu:               4.1 elap:               0.2
 (Enter /sw/arch/RedHatEnterpriseServer7/EB_production/2019/software/Gaussian/g16.c01/l303.exe)
 DipDrv:  MaxL=1.
 Leave Link  303 at Mon Feb 22 21:28:34 2021, MaxMem=   104857600 cpu:               0.6 elap:               0.0
 (Enter /sw/arch/RedHatEnterpriseServer7/EB_production/2019/software/Gaussian/g16.c01/l401.exe)
 Initial guess from the checkpoint file:  "XLYOFNOQVPJJNP-UHFFFAOYSA-N.chk"
 B after Tr=    -0.000000    0.000000   -0.000000
         Rot=    1.000000   -0.000000    0.000000    0.000000 Ang=   0.00 deg.
 Guess basis will be translated and rotated to current coordinates.
 JPrj=2 DoOrth=T DoCkMO=T.
 Initial guess orbital symmetries:
       Occupied  (A') (A') (A') (A') (A")
       Virtual   (A') (A') (A') (A') (A") (A') (A') (A') (A') (A")
                 (A") (A') (A') (A') (A') (A') (A") (A') (A') (A')
                 (A") (A") (A') (A') (A') (A')
 The electronic state of the initial guess is 1-A'.
 Leave Link  401 at Mon Feb 22 21:28:35 2021, MaxMem=   104857600 cpu:               4.3 elap:               0.2
 (Enter /sw/arch/RedHatEnterpriseServer7/EB_production/2019/software/Gaussian/g16.c01/l502.exe)
 Keep J ints in memory in symmetry-blocked form, NReq=27767097.
 FoFCou: FMM=F IPFlag=           0 FMFlag=           0 FMFlg1=           0
         NFxFlg=           0 DoJE=F BraDBF=F KetDBF=F FulRan=T
         wScrn=  0.000000 ICntrl=       600 IOpCl=  0 I1Cent=           0 NGrid=           0
         NMat0=    1 NMatS0=    496 NMatT0=    0 NMatD0=    1 NMtDS0=    0 NMtDT0=    0
 Petite list used in FoFCou.
 Closed shell SCF:
 Using DIIS extrapolation, IDIIS=  1040.
 NGot=   104857600 LenX=   104784341 LenY=   104782876
 Requested convergence on RMS density matrix=1.00D-08 within 128 cycles.
 Requested convergence on MAX density matrix=1.00D-06.
 Requested convergence on             energy=1.00D-06.
 No special actions if energy rises.

 Cycle   1  Pass 1  IDiag  1:
 Inv3:  Mode=1 IEnd=      451632.
 Iteration    1 A*A^-1 deviation from unit magnitude is 2.66D-15 for    184.
 Iteration    1 A*A^-1 deviation from orthogonality  is 1.33D-15 for    252     38.
 Iteration    1 A^-1*A deviation from unit magnitude is 2.66D-15 for     52.
 Iteration    1 A^-1*A deviation from orthogonality  is 1.33D-15 for    203      1.
 E= -76.4683958830622    
 DIIS: error= 1.26D-03 at cycle   1 NSaved=   1.
 NSaved= 1 IEnMin= 1 EnMin= -76.4683958830622     IErMin= 1 ErrMin= 1.26D-03
 ErrMax= 1.26D-03  0.00D+00 EMaxC= 1.00D-01 BMatC= 4.35D-05 BMatP= 4.35D-05
 IDIUse=3 WtCom= 9.87D-01 WtEn= 1.26D-02
 Coeff-Com:  0.100D+01
 Coeff-En:   0.100D+01
 Coeff:      0.100D+01
 Gap=     0.278 Goal=   None    Shift=    0.000
 GapD=    0.278 DampG=1.000 DampE=1.000 DampFc=1.0000 IDamp=-1.
 RMSDP=2.06D-04 MaxDP=1.50D-03              OVMax= 3.26D-03

 Cycle   2  Pass 1  IDiag  1:
 E= -76.4684162228781     Delta-E=       -0.000020339816 Rises=F Damp=F
 DIIS: error= 1.04D-03 at cycle   2 NSaved=   2.
 NSaved= 2 IEnMin= 2 EnMin= -76.4684162228781     IErMin= 2 ErrMin= 1.04D-03
 ErrMax= 1.04D-03  0.00D+00 EMaxC= 1.00D-01 BMatC= 2.04D-05 BMatP= 4.35D-05
 IDIUse=3 WtCom= 9.90D-01 WtEn= 1.04D-02
 Coeff-Com:  0.370D+00 0.630D+00
 Coeff-En:   0.420D-01 0.958D+00
 Coeff:      0.367D+00 0.633D+00
 Gap=     0.276 Goal=   None    Shift=    0.000
 RMSDP=1.16D-04 MaxDP=1.27D-03 DE=-2.03D-05 OVMax= 1.75D-03

 Cycle   3  Pass 1  IDiag  1:
 E= -76.4684205883757     Delta-E=       -0.000004365498 Rises=F Damp=F
 DIIS: error= 7.72D-04 at cycle   3 NSaved=   3.
 NSaved= 3 IEnMin= 3 EnMin= -76.4684205883757     IErMin= 3 ErrMin= 7.72D-04
 ErrMax= 7.72D-04  0.00D+00 EMaxC= 1.00D-01 BMatC= 1.37D-05 BMatP= 2.04D-05
 IDIUse=3 WtCom= 9.92D-01 WtEn= 7.72D-03
 Coeff-Com:  0.447D-01 0.443D+00 0.512D+00
 Coeff-En:   0.000D+00 0.423D+00 0.577D+00
 Coeff:      0.443D-01 0.443D+00 0.513D+00
 Gap=     0.277 Goal=   None    Shift=    0.000
 RMSDP=5.58D-05 MaxDP=5.30D-04 DE=-4.37D-06 OVMax= 8.52D-04

 Cycle   4  Pass 1  IDiag  1:
 E= -76.4684295496402     Delta-E=       -0.000008961264 Rises=F Damp=F
 DIIS: error= 4.57D-05 at cycle   4 NSaved=   4.
 NSaved= 4 IEnMin= 4 EnMin= -76.4684295496402     IErMin= 4 ErrMin= 4.57D-05
 ErrMax= 4.57D-05  0.00D+00 EMaxC= 1.00D-01 BMatC= 4.03D-08 BMatP= 1.37D-05
 IDIUse=1 WtCom= 1.00D+00 WtEn= 0.00D+00
 Coeff-Com:  0.275D-02 0.109D+00 0.149D+00 0.739D+00
 Coeff:      0.275D-02 0.109D+00 0.149D+00 0.739D+00
 Gap=     0.277 Goal=   None    Shift=    0.000
 RMSDP=3.57D-06 MaxDP=2.53D-05 DE=-8.96D-06 OVMax= 5.76D-05

 Cycle   5  Pass 1  IDiag  1:
 E= -76.4684295774809     Delta-E=       -0.000000027841 Rises=F Damp=F
 DIIS: error= 1.35D-06 at cycle   5 NSaved=   5.
 NSaved= 5 IEnMin= 5 EnMin= -76.4684295774809     IErMin= 5 ErrMin= 1.35D-06
 ErrMax= 1.35D-06  0.00D+00 EMaxC= 1.00D-01 BMatC= 6.75D-11 BMatP= 4.03D-08
 IDIUse=1 WtCom= 1.00D+00 WtEn= 0.00D+00
 Coeff-Com: -0.184D-03 0.844D-02 0.119D-01 0.829D-01 0.897D+00
 Coeff:     -0.184D-03 0.844D-02 0.119D-01 0.829D-01 0.897D+00
 Gap=     0.277 Goal=   None    Shift=    0.000
 RMSDP=1.76D-07 MaxDP=1.17D-06 DE=-2.78D-08 OVMax= 2.61D-06

 Cycle   6  Pass 1  IDiag  1:
 E= -76.4684295775281     Delta-E=       -0.000000000047 Rises=F Damp=F
 DIIS: error= 1.36D-07 at cycle   6 NSaved=   6.
 NSaved= 6 IEnMin= 6 EnMin= -76.4684295775281     IErMin= 6 ErrMin= 1.36D-07
 ErrMax= 1.36D-07  0.00D+00 EMaxC= 1.00D-01 BMatC= 4.00D-13 BMatP= 6.75D-11
 IDIUse=1 WtCom= 1.00D+00 WtEn= 0.00D+00
 Coeff-Com: -0.104D-04 0.307D-03 0.312D-03 0.389D-02 0.635D-01 0.932D+00
 Coeff:     -0.104D-04 0.307D-03 0.312D-03 0.389D-02 0.635D-01 0.932D+00
 Gap=     0.277 Goal=   None    Shift=    0.000
 RMSDP=1.67D-08 MaxDP=1.29D-07 DE=-4.72D-11 OVMax= 2.92D-07

 Cycle   7  Pass 1  IDiag  1:
 E= -76.4684295775284     Delta-E=       -0.000000000000 Rises=F Damp=F
 DIIS: error= 1.74D-08 at cycle   7 NSaved=   7.
 NSaved= 7 IEnMin= 7 EnMin= -76.4684295775284     IErMin= 7 ErrMin= 1.74D-08
 ErrMax= 1.74D-08  0.00D+00 EMaxC= 1.00D-01 BMatC= 5.71D-15 BMatP= 4.00D-13
 IDIUse=1 WtCom= 1.00D+00 WtEn= 0.00D+00
 Coeff-Com: -0.186D-06-0.454D-04-0.539D-04-0.440D-03-0.235D-02 0.484D-01
 Coeff-Com:  0.954D+00
 Coeff:     -0.186D-06-0.454D-04-0.539D-04-0.440D-03-0.235D-02 0.484D-01
 Coeff:      0.954D+00
 Gap=     0.277 Goal=   None    Shift=    0.000
 RMSDP=1.40D-09 MaxDP=1.19D-08 DE=-2.98D-13 OVMax= 2.40D-08

 Error on total polarization charges =  0.00410
 SCF Done:  E(RB-P86) =  -76.4684295775     A.U. after    7 cycles
            NFock=  7  Conv=0.14D-08     -V/T= 2.0038
 KE= 7.617739619733D+01 PE=-1.990087925605D+02 EE= 3.731563350858D+01
 Leave Link  502 at Mon Feb 22 21:28:35 2021, MaxMem=   104857600 cpu:              20.3 elap:               0.7
 (Enter /sw/arch/RedHatEnterpriseServer7/EB_production/2019/software/Gaussian/g16.c01/l701.exe)
 ... and contract with generalized density number  0.
 Compute integral first derivatives.
 R6Disp: Adding Grimme-D3 dispersion energy 1st derivatives to the gradient.
 PrsmSu:  requested number of processors reduced to:  30 ShMem   1 Linda.
 D1PCM: PCM CHGder 1st derivatives, ID1Alg=3 FixD1E=F DoIter=F DoCFld=F I1PDM=0.
 GePol: Maximum number of non-zero 1st derivatives   =     262
 CoulSu:  requested number of processors reduced to:  30 ShMem   1 Linda.
 CoulSu:  requested number of processors reduced to:  31 ShMem   1 Linda.
 Leave Link  701 at Mon Feb 22 21:28:36 2021, MaxMem=   104857600 cpu:               9.8 elap:               0.3
 (Enter /sw/arch/RedHatEnterpriseServer7/EB_production/2019/software/Gaussian/g16.c01/l702.exe)
 L702 exits ... SP integral derivatives will be done elsewhere.
 Leave Link  702 at Mon Feb 22 21:28:36 2021, MaxMem=   104857600 cpu:               0.7 elap:               0.1
 (Enter /sw/arch/RedHatEnterpriseServer7/EB_production/2019/software/Gaussian/g16.c01/l703.exe)
 Integral derivatives from FoFJK, PRISM(SPDF).
 Compute integral first derivatives, UseDBF=F ICtDFT=           0.
 Calling FoFJK, ICntrl=      2527 FMM=F ISym2X=1 I1Cent= 0 IOpClX= 0 NMat=1 NMatS=1 NMatT=0.
 FoFJK:  IHMeth= 1 ICntrl=    2527 DoSepK=F KAlg= 0 I1Cent=           0 FoldK=F
 IRaf=         0 NMat=       1 IRICut=       1 DoRegI=T DoRafI=F ISym2E= 1 IDoP0=0 IntGTp=1.
 FoFCou: FMM=F IPFlag=           0 FMFlag=      100000 FMFlg1=         800
         NFxFlg=           0 DoJE=F BraDBF=F KetDBF=F FulRan=T
         wScrn=  0.000000 ICntrl=      2527 IOpCl=  0 I1Cent=           0 NGrid=           0
         NMat0=    1 NMatS0=      1 NMatT0=    0 NMatD0=    1 NMtDS0=    0 NMtDT0=    0
 Petite list used in FoFCou.
 Leave Link  703 at Mon Feb 22 21:28:36 2021, MaxMem=   104857600 cpu:               5.0 elap:               0.2
 (Enter /sw/arch/RedHatEnterpriseServer7/EB_production/2019/software/Gaussian/g16.c01/l716.exe)
 Dipole        = 1.17553050D-08-9.42558108D-01 1.68399632D-32
 ***** Axes restored to original set *****
 -------------------------------------------------------------------
 Center     Atomic                   Forces (Hartrees/Bohr)
 Number     Number              X              Y              Z
 -------------------------------------------------------------------
      1        8           0.000210761    0.000298012    0.000000000
      2        1          -0.000322201    0.000004322    0.000000000
      3        1           0.000111441   -0.000302334    0.000000000
 -------------------------------------------------------------------
 Cartesian Forces:  Max     0.000322201 RMS     0.000194619
 Leave Link  716 at Mon Feb 22 21:28:36 2021, MaxMem=   104857600 cpu:               0.7 elap:               0.0
 (Enter /sw/arch/RedHatEnterpriseServer7/EB_production/2019/software/Gaussian/g16.c01/l103.exe)

 GradGradGradGradGradGradGradGradGradGradGradGradGradGradGradGradGradGrad
 Berny optimization.
 Using GEDIIS/GDIIS optimizer.
 FormGI is forming the generalized inverse of G from B-inverse, IUseBI=4.
 Internal  Forces:  Max     0.000565987 RMS     0.000335922
 Search for a local minimum.
 Step number   2 out of a maximum of   20
 All quantities printed in internal units (Hartrees-Bohrs-Radians)
 RMS Force = .33592D-03 SwitMx=.10000D-02 MixMth= 2
 Mixed Optimization -- En-DIIS/RFO-DIIS
 Update second derivatives using D2CorX and points    1    2
 DE= -1.09D-04 DEPred=-1.15D-04 R= 9.46D-01
 TightC=F SS=  1.41D+00  RLast= 2.62D-02 DXNew= 5.0454D-01 7.8687D-02
 Trust test= 9.46D-01 RLast= 2.62D-02 DXMaxT set to 3.00D-01
 The second derivative matrix:
                          R1        R2        A1
           R1           0.50877
           R2          -0.00513   0.50877
           A1           0.01238   0.01238   0.17328
 ITU=  1  0
 Use linear search instead of GDIIS.
     Eigenvalues ---    0.17235   0.50457   0.51390
 RFO step:  Lambda=-1.14663250D-06 EMin= 1.72349909D-01
 Quartic linear search produced a step of -0.05326.
 Iteration  1 RMS(Cart)=  0.00189849 RMS(Int)=  0.00000196
 Iteration  2 RMS(Cart)=  0.00000164 RMS(Int)=  0.00000000
 Iteration  3 RMS(Cart)=  0.00000000 RMS(Int)=  0.00000000
 ITry= 1 IFail=0 DXMaxC= 2.00D-03 DCOld= 1.00D+10 DXMaxT= 3.00D-01 DXLimC= 3.00D+00 Rises=F
 ClnCor:  largest displacement from symmetrization is 2.22D-16 for atom     3.
 Variable       Old X    -DE/DX   Delta X   Delta X   Delta X     New X
                                 (Linear)    (Quad)   (Total)
    R1        1.83888   0.00010   0.00069  -0.00059   0.00010   1.83899
    R2        1.83888   0.00010   0.00069  -0.00059   0.00010   1.83899
    A1        1.80517   0.00057   0.00100   0.00223   0.00323   1.80840
         Item               Value     Threshold  Converged?
 Maximum Force            0.000566     0.000450     NO 
 RMS     Force            0.000336     0.000300     NO 
 Maximum Displacement     0.002004     0.001800     NO 
 RMS     Displacement     0.001898     0.001200     NO 
 Predicted change in Energy=-9.303280D-07
 Lowest energy point so far.  Saving SCF results.
 GradGradGradGradGradGradGradGradGradGradGradGradGradGradGradGradGradGrad

 Leave Link  103 at Mon Feb 22 21:28:36 2021, MaxMem=   104857600 cpu:               2.6 elap:               0.1
 (Enter /sw/arch/RedHatEnterpriseServer7/EB_production/2019/software/Gaussian/g16.c01/l202.exe)
                          Input orientation:                          
 ---------------------------------------------------------------------
 Center     Atomic      Atomic             Coordinates (Angstroms)
 Number     Number       Type             X           Y           Z
 ---------------------------------------------------------------------
      1          8           0       -0.013818   -0.019550   -0.000000
      2          1           0       -0.290902    0.913320    0.000000
      3          1           0        0.958060    0.030180   -0.000000
 ---------------------------------------------------------------------
                    Distance matrix (angstroms):
                    1          2          3
     1  O    0.000000
     2  H    0.973150   0.000000
     3  H    0.973150   1.529654   0.000000
 Stoichiometry    H2O
 Framework group  C2V[C2(O),SGV(H2)]
 Deg. of freedom     2
 Full point group                 C2V     NOp   4
 Omega: Change in point group or standard orientation.

 Old FWG=CS   [SG(H2O1)]
 New FWG=C02V [C2(O1),SGV(H2)]
 RotChk:  IX=0 Diff= 2.45D+00
 Largest Abelian subgroup         C2V     NOp   4
 Largest concise Abelian subgroup C2      NOp   2
                         Standard orientation:                         
 ---------------------------------------------------------------------
 Center     Atomic      Atomic             Coordinates (Angstroms)
 Number     Number       Type             X           Y           Z
 ---------------------------------------------------------------------
      1          8           0       -0.000000    0.000000    0.120343
      2          1           0        0.000000    0.764827   -0.481372
      3          1           0       -0.000000   -0.764827   -0.481372
 ---------------------------------------------------------------------
 Rotational constants (GHZ):         779.7696335         428.6228838         276.5881981
 Leave Link  202 at Mon Feb 22 21:28:36 2021, MaxMem=   104857600 cpu:               0.7 elap:               0.0
 (Enter /sw/arch/RedHatEnterpriseServer7/EB_production/2019/software/Gaussian/g16.c01/l301.exe)
 Standard basis: TZVP (5D, 7F)
 Ernie: Thresh=  0.10000D-02 Tol=  0.10000D-05 Strict=F.
 There are    16 symmetry adapted cartesian basis functions of A1  symmetry.
 There are     2 symmetry adapted cartesian basis functions of A2  symmetry.
 There are     5 symmetry adapted cartesian basis functions of B1  symmetry.
 There are     9 symmetry adapted cartesian basis functions of B2  symmetry.
 There are    15 symmetry adapted basis functions of A1  symmetry.
 There are     2 symmetry adapted basis functions of A2  symmetry.
 There are     5 symmetry adapted basis functions of B1  symmetry.
 There are     9 symmetry adapted basis functions of B2  symmetry.
    31 basis functions,    51 primitive gaussians,    32 cartesian basis functions
     5 alpha electrons        5 beta electrons
       nuclear repulsion energy         9.0463864481 Hartrees.
 IExCor=  404 DFT=T Ex=B Corr=P86 ExCW=0 ScaHFX=  0.000000
 ScaDFX=  1.000000  1.000000  1.000000  1.000000 ScalE2=  1.000000  1.000000
 IRadAn=      5 IRanWt=     -1 IRanGd=            0 ICorTp=0 IEmpDi=131
 NAtoms=    3 NActive=    3 NUniq=    2 SFac= 2.25D+00 NAtFMM=   60 NAOKFM=F Big=F
 Integral buffers will be    131072 words long.
 Raffenetti 2 integral format.
 Two-electron integral symmetry is turned on.
 R6Disp:  Grimme-D3 Dispersion energy=       -0.0000093139 Hartrees.
 Nuclear repulsion after empirical dispersion term =        9.0463771341 Hartrees.
 ------------------------------------------------------------------------------
 Polarizable Continuum Model (PCM)
 =================================
 Model                : PCM.
 Atomic radii         : UFF (Universal Force Field).
 Polarization charges : Total charges.
 Charge compensation  : None.
 Solution method      : On-the-fly selection.
 Cavity type          : Scaled VdW (van der Waals Surface) (Alpha=1.100).
 Cavity algorithm     : GePol (No added spheres)
                        Default sphere list used, NSphG=    3.
                        Lebedev-Laikov grids with approx.  5.0 points / Ang**2.
                        Smoothing algorithm: York/Karplus (Gamma=1.0000).
                        Polarization charges: spherical gaussians, with
                                              point-specific exponents (IZeta= 3).
                        Self-potential: point-specific (ISelfS= 7).
                        Self-field    : sphere-specific E.n sum rule (ISelfD= 2).
 1st derivatives      : Analytical E(r).r(x)/FMM algorithm (CHGder, D1EAlg=3).
                        Cavity 1st derivative terms included.
 Solvent              : Water, Eps=  78.355300 Eps(inf)=   1.777849
 ------------------------------------------------------------------------------
 Spheres list:
 ISph  on   Nord     Re0    Alpha      Xe            Ye            Ze
    1   O      1    1.7500  1.100      0.000000      0.000000      0.120343
    2   H      2    1.4430  1.100      0.000000      0.764827     -0.481372
    3   H      3    1.4430  1.100     -0.000000     -0.764827     -0.481372
 ------------------------------------------------------------------------------
 GePol: Number of generator spheres                  =       3
 GePol: Total number of spheres                      =       3
 GePol: Number of exposed spheres                    =       3 (100.00%)
 GePol: Number of points                             =     388
 GePol: Average weight of points                     =       0.14
 GePol: Minimum weight of points                     =   0.86D-06
 GePol: Maximum weight of points                     =    0.20212
 GePol: Number of points with low weight             =       9
 GePol: Fraction of low-weight points (<1% of avg)   =       2.32%
 GePol: Cavity surface area                          =     55.813 Ang**2
 GePol: Cavity volume                                =     37.616 Ang**3
 Leave Link  301 at Mon Feb 22 21:28:36 2021, MaxMem=   104857600 cpu:               1.7 elap:               0.1
 (Enter /sw/arch/RedHatEnterpriseServer7/EB_production/2019/software/Gaussian/g16.c01/l302.exe)
 NPDir=0 NMtPBC=     1 NCelOv=     1 NCel=       1 NClECP=     1 NCelD=      1
         NCelK=      1 NCelE2=     1 NClLst=     1 CellRange=     0.0.
 One-electron integrals computed using PRISM.
 One-electron integral symmetry used in STVInt
 PrsmSu:  requested number of processors reduced to:  30 ShMem   1 Linda.
 NBasis=    31 RedAO= T EigKep=  1.14D-02  NBF=    15     2     5     9
 NBsUse=    31 1.00D-06 EigRej= -1.00D+00 NBFU=    15     2     5     9
 Precomputing XC quadrature grid using
 IXCGrd= 4 IRadAn=           5 IRanWt=          -1 IRanGd=           0 AccXCQ= 0.00D+00.
 Generated NRdTot=       0 NPtTot=           0 NUsed=           0 NTot=          32
 NSgBfM=    32    32    32    32    32 MxSgAt=     3 MxSgA2=     3.
 Leave Link  302 at Mon Feb 22 21:28:36 2021, MaxMem=   104857600 cpu:               3.5 elap:               0.1
 (Enter /sw/arch/RedHatEnterpriseServer7/EB_production/2019/software/Gaussian/g16.c01/l303.exe)
 DipDrv:  MaxL=1.
 Leave Link  303 at Mon Feb 22 21:28:36 2021, MaxMem=   104857600 cpu:               0.7 elap:               0.0
 (Enter /sw/arch/RedHatEnterpriseServer7/EB_production/2019/software/Gaussian/g16.c01/l401.exe)
 Initial guess from the checkpoint file:  "XLYOFNOQVPJJNP-UHFFFAOYSA-N.chk"
 B after Tr=    -0.000000    0.000000    0.000000
         Rot=    0.500000   -0.500000   -0.500000   -0.500000 Ang=-120.00 deg.
 Guess basis will be translated and rotated to current coordinates.
 JPrj=2 DoOrth=T DoCkMO=T.
 Initial guess orbital symmetries:
       Occupied  (A1) (A1) (B2) (A1) (B1)
       Virtual   (A1) (B2) (B2) (A1) (B1) (A1) (B2) (A1) (A1) (A2)
                 (B1) (B2) (B2) (A1) (A1) (B2) (B1) (A1) (B2) (A1)
                 (B1) (A2) (A1) (A1) (B2) (A1)
 The electronic state of the initial guess is 1-A1.
 Leave Link  401 at Mon Feb 22 21:28:37 2021, MaxMem=   104857600 cpu:               5.4 elap:               0.2
 (Enter /sw/arch/RedHatEnterpriseServer7/EB_production/2019/software/Gaussian/g16.c01/l502.exe)
 Keep J ints in memory in symmetry-blocked form, NReq=27767747.
 FoFCou: FMM=F IPFlag=           0 FMFlag=           0 FMFlg1=           0
         NFxFlg=           0 DoJE=F BraDBF=F KetDBF=F FulRan=T
         wScrn=  0.000000 ICntrl=       600 IOpCl=  0 I1Cent=           0 NGrid=           0
         NMat0=    1 NMatS0=    496 NMatT0=    0 NMatD0=    1 NMtDS0=    0 NMtDT0=    0
 Petite list used in FoFCou.
 Closed shell SCF:
 Using DIIS extrapolation, IDIIS=  1040.
 NGot=   104857600 LenX=   104817193 LenY=   104815728
 Requested convergence on RMS density matrix=1.00D-08 within 128 cycles.
 Requested convergence on MAX density matrix=1.00D-06.
 Requested convergence on             energy=1.00D-06.
 No special actions if energy rises.

 Cycle   1  Pass 1  IDiag  1:
 Inv3:  Mode=1 IEnd=      451632.
 Iteration    1 A*A^-1 deviation from unit magnitude is 2.22D-15 for     80.
 Iteration    1 A*A^-1 deviation from orthogonality  is 2.00D-15 for    260    121.
 Iteration    1 A^-1*A deviation from unit magnitude is 2.22D-15 for    240.
 Iteration    1 A^-1*A deviation from orthogonality  is 1.33D-15 for    192     93.
 E= -76.4684302707174    
 DIIS: error= 8.66D-05 at cycle   1 NSaved=   1.
 NSaved= 1 IEnMin= 1 EnMin= -76.4684302707174     IErMin= 1 ErrMin= 8.66D-05
 ErrMax= 8.66D-05  0.00D+00 EMaxC= 1.00D-01 BMatC= 3.67D-07 BMatP= 3.67D-07
 IDIUse=1 WtCom= 1.00D+00 WtEn= 0.00D+00
 Coeff-Com:  0.100D+01
 Coeff:      0.100D+01
 Gap=     0.277 Goal=   None    Shift=    0.000
 RMSDP=3.11D-05 MaxDP=2.06D-04              OVMax= 3.63D-04

 Cycle   2  Pass 1  IDiag  1:
 E= -76.4684306789625     Delta-E=       -0.000000408245 Rises=F Damp=F
 DIIS: error= 5.75D-06 at cycle   2 NSaved=   2.
 NSaved= 2 IEnMin= 2 EnMin= -76.4684306789625     IErMin= 2 ErrMin= 5.75D-06
 ErrMax= 5.75D-06  0.00D+00 EMaxC= 1.00D-01 BMatC= 1.27D-09 BMatP= 3.67D-07
 IDIUse=1 WtCom= 1.00D+00 WtEn= 0.00D+00
 Coeff-Com:  0.119D-01 0.988D+00
 Coeff:      0.119D-01 0.988D+00
 Gap=     0.277 Goal=   None    Shift=    0.000
 RMSDP=1.15D-06 MaxDP=9.85D-06 DE=-4.08D-07 OVMax= 1.78D-05

 Cycle   3  Pass 1  IDiag  1:
 E= -76.4684306795874     Delta-E=       -0.000000000625 Rises=F Damp=F
 DIIS: error= 5.99D-06 at cycle   3 NSaved=   3.
 NSaved= 3 IEnMin= 3 EnMin= -76.4684306795874     IErMin= 2 ErrMin= 5.75D-06
 ErrMax= 5.99D-06  0.00D+00 EMaxC= 1.00D-01 BMatC= 6.58D-10 BMatP= 1.27D-09
 IDIUse=1 WtCom= 1.00D+00 WtEn= 0.00D+00
 Coeff-Com:  0.147D-02 0.403D+00 0.596D+00
 Coeff:      0.147D-02 0.403D+00 0.596D+00
 Gap=     0.277 Goal=   None    Shift=    0.000
 RMSDP=5.84D-07 MaxDP=6.64D-06 DE=-6.25D-10 OVMax= 9.20D-06

 Cycle   4  Pass 1  IDiag  1:
 E= -76.4684306798061     Delta-E=       -0.000000000219 Rises=F Damp=F
 DIIS: error= 3.51D-06 at cycle   4 NSaved=   4.
 NSaved= 4 IEnMin= 4 EnMin= -76.4684306798061     IErMin= 4 ErrMin= 3.51D-06
 ErrMax= 3.51D-06  0.00D+00 EMaxC= 1.00D-01 BMatC= 3.01D-10 BMatP= 6.58D-10
 IDIUse=1 WtCom= 1.00D+00 WtEn= 0.00D+00
 Coeff-Com: -0.716D-03 0.951D-01 0.406D+00 0.500D+00
 Coeff:     -0.716D-03 0.951D-01 0.406D+00 0.500D+00
 Gap=     0.277 Goal=   None    Shift=    0.000
 RMSDP=2.75D-07 MaxDP=2.40D-06 DE=-2.19D-10 OVMax= 4.16D-06

 Cycle   5  Pass 1  IDiag  1:
 E= -76.4684306800062     Delta-E=       -0.000000000200 Rises=F Damp=F
 DIIS: error= 2.14D-07 at cycle   5 NSaved=   5.
 NSaved= 5 IEnMin= 5 EnMin= -76.4684306800062     IErMin= 5 ErrMin= 2.14D-07
 ErrMax= 2.14D-07  0.00D+00 EMaxC= 1.00D-01 BMatC= 8.93D-13 BMatP= 3.01D-10
 IDIUse=1 WtCom= 1.00D+00 WtEn= 0.00D+00
 Coeff-Com: -0.976D-04 0.133D-01 0.894D-01 0.133D+00 0.764D+00
 Coeff:     -0.976D-04 0.133D-01 0.894D-01 0.133D+00 0.764D+00
 Gap=     0.277 Goal=   None    Shift=    0.000
 RMSDP=1.48D-08 MaxDP=8.42D-08 DE=-2.00D-10 OVMax= 2.61D-07

 Cycle   6  Pass 1  IDiag  1:
 E= -76.4684306800068     Delta-E=       -0.000000000001 Rises=F Damp=F
 DIIS: error= 8.59D-09 at cycle   6 NSaved=   6.
 NSaved= 6 IEnMin= 6 EnMin= -76.4684306800068     IErMin= 6 ErrMin= 8.59D-09
 ErrMax= 8.59D-09  0.00D+00 EMaxC= 1.00D-01 BMatC= 2.77D-15 BMatP= 8.93D-13
 IDIUse=1 WtCom= 1.00D+00 WtEn= 0.00D+00
 Coeff-Com: -0.510D-05-0.569D-03 0.472D-03 0.391D-02 0.534D-01 0.943D+00
 Coeff:     -0.510D-05-0.569D-03 0.472D-03 0.391D-02 0.534D-01 0.943D+00
 Gap=     0.277 Goal=   None    Shift=    0.000
 RMSDP=1.36D-09 MaxDP=1.04D-08 DE=-6.11D-13 OVMax= 1.46D-08

 Error on total polarization charges =  0.00411
 SCF Done:  E(RB-P86) =  -76.4684306800     A.U. after    6 cycles
            NFock=  6  Conv=0.14D-08     -V/T= 2.0038
 KE= 7.617685170043D+01 PE=-1.990069601408D+02 EE= 3.731530062623D+01
 Leave Link  502 at Mon Feb 22 21:28:37 2021, MaxMem=   104857600 cpu:              18.0 elap:               0.6
 (Enter /sw/arch/RedHatEnterpriseServer7/EB_production/2019/software/Gaussian/g16.c01/l701.exe)
 ... and contract with generalized density number  0.
 Compute integral first derivatives.
 R6Disp: Adding Grimme-D3 dispersion energy 1st derivatives to the gradient.
 PrsmSu:  requested number of processors reduced to:  30 ShMem   1 Linda.
 D1PCM: PCM CHGder 1st derivatives, ID1Alg=3 FixD1E=F DoIter=F DoCFld=F I1PDM=0.
 GePol: Maximum number of non-zero 1st derivatives   =     262
 CoulSu:  requested number of processors reduced to:  30 ShMem   1 Linda.
 CoulSu:  requested number of processors reduced to:  31 ShMem   1 Linda.
 Leave Link  701 at Mon Feb 22 21:28:38 2021, MaxMem=   104857600 cpu:              12.4 elap:               0.4
 (Enter /sw/arch/RedHatEnterpriseServer7/EB_production/2019/software/Gaussian/g16.c01/l702.exe)
 L702 exits ... SP integral derivatives will be done elsewhere.
 Leave Link  702 at Mon Feb 22 21:28:38 2021, MaxMem=   104857600 cpu:               0.8 elap:               0.1
 (Enter /sw/arch/RedHatEnterpriseServer7/EB_production/2019/software/Gaussian/g16.c01/l703.exe)
 Integral derivatives from FoFJK, PRISM(SPDF).
 Compute integral first derivatives, UseDBF=F ICtDFT=           0.
 Calling FoFJK, ICntrl=      2527 FMM=F ISym2X=1 I1Cent= 0 IOpClX= 0 NMat=1 NMatS=1 NMatT=0.
 FoFJK:  IHMeth= 1 ICntrl=    2527 DoSepK=F KAlg= 0 I1Cent=           0 FoldK=F
 IRaf=         0 NMat=       1 IRICut=       1 DoRegI=T DoRafI=F ISym2E= 1 IDoP0=0 IntGTp=1.
 FoFCou: FMM=F IPFlag=           0 FMFlag=      100000 FMFlg1=         800
         NFxFlg=           0 DoJE=F BraDBF=F KetDBF=F FulRan=T
         wScrn=  0.000000 ICntrl=      2527 IOpCl=  0 I1Cent=           0 NGrid=           0
         NMat0=    1 NMatS0=      1 NMatT0=    0 NMatD0=    1 NMtDS0=    0 NMtDT0=    0
 Petite list used in FoFCou.
 Leave Link  703 at Mon Feb 22 21:28:38 2021, MaxMem=   104857600 cpu:               4.9 elap:               0.2
 (Enter /sw/arch/RedHatEnterpriseServer7/EB_production/2019/software/Gaussian/g16.c01/l716.exe)
 Dipole        =-5.02165619D-17 4.44089210D-16-9.41399658D-01
 ***** Axes restored to original set *****
 -------------------------------------------------------------------
 Center     Atomic                   Forces (Hartrees/Bohr)
 Number     Number              X              Y              Z
 -------------------------------------------------------------------
      1        8           0.000069196    0.000097858   -0.000000000
      2        1          -0.000020811   -0.000058678    0.000000000
      3        1          -0.000048385   -0.000039180    0.000000000
 -------------------------------------------------------------------
 Cartesian Forces:  Max     0.000097858 RMS     0.000049572
 Leave Link  716 at Mon Feb 22 21:28:38 2021, MaxMem=   104857600 cpu:               0.7 elap:               0.1
 (Enter /sw/arch/RedHatEnterpriseServer7/EB_production/2019/software/Gaussian/g16.c01/l103.exe)

 GradGradGradGradGradGradGradGradGradGradGradGradGradGradGradGradGradGrad
 Berny optimization.
 Using GEDIIS/GDIIS optimizer.
 FormGI is forming the generalized inverse of G from B-inverse, IUseBI=4.
 Internal  Forces:  Max     0.000067411 RMS     0.000056596
 Search for a local minimum.
 Step number   3 out of a maximum of   20
 All quantities printed in internal units (Hartrees-Bohrs-Radians)
 RMS Force = .56596D-04 SwitMx=.10000D-02 MixMth= 2
 Mixed Optimization -- En-DIIS/RFO-DIIS
 Swapping is turned off.
 Update second derivatives using D2CorX and points    1    2    3
 DE= -1.10D-06 DEPred=-9.30D-07 R= 1.19D+00
 TightC=F SS=  1.41D+00  RLast= 3.23D-03 DXNew= 5.0454D-01 9.6996D-03
 Trust test= 1.19D+00 RLast= 3.23D-03 DXMaxT set to 3.00D-01
 The second derivative matrix:
                          R1        R2        A1
           R1           0.51382
           R2          -0.00009   0.51381
           A1           0.02844   0.02844   0.15252
 ITU=  1  1  0
     Eigenvalues ---    0.14810   0.51390   0.51814
 En-DIIS/RFO-DIIS/Sim-DIIS IScMMF=       -3 using points:     3    2
 RFO step:  Lambda=-4.55192115D-08.
 NNeg= 0 NGDIIS= 2 SimSw=  2.50D-03 Rises=F DC= -1.10D-06 SmlDif=  1.00D-05
 NRisDI= 0 DoIntr=F SqrtH=F CThrHd= 10.0 CDAdj=  3.0
 RMS Error=  0.2999925499D-03 NUsed= 2 OKEnD=F EnDIS=F
 InvSVX:  RCond= 2.61D-06 Info=           0 Equed=N FErr=  1.20D-15 BErr=  2.91D-17
 DidBck=F Rises=F RFO-DIIS coefs:    1.14845   -0.14845
 Iteration  1 RMS(Cart)=  0.00025030 RMS(Int)=  0.00000005
 Iteration  2 RMS(Cart)=  0.00000005 RMS(Int)=  0.00000000
 ITry= 1 IFail=0 DXMaxC= 2.34D-04 DCOld= 1.00D+10 DXMaxT= 3.00D-01 DXLimC= 3.00D+00 Rises=F
 ClnCor:  largest displacement from symmetrization is 1.24D-09 for atom     3.
 Variable       Old X    -DE/DX   Delta X   Delta X   Delta X     New X
                                 (Linear)    (Quad)   (Total)
    R1        1.83899  -0.00005   0.00002  -0.00014  -0.00013   1.83886
    R2        1.83899  -0.00005   0.00002  -0.00014  -0.00013   1.83886
    A1        1.80840   0.00007   0.00048   0.00001   0.00049   1.80888
         Item               Value     Threshold  Converged?
 Maximum Force            0.000067     0.000450     YES
 RMS     Force            0.000057     0.000300     YES
 Maximum Displacement     0.000234     0.001800     YES
 RMS     Displacement     0.000250     0.001200     YES
 Predicted change in Energy=-2.275961D-08
 Optimization completed.
    -- Stationary point found.
                           ----------------------------
                           !   Optimized Parameters   !
                           ! (Angstroms and Degrees)  !
 --------------------------                            --------------------------
 ! Name  Definition              Value          Derivative Info.                !
 --------------------------------------------------------------------------------
 ! R1    R(1,2)                  0.9732         -DE/DX =   -0.0001              !
 ! R2    R(1,3)                  0.9732         -DE/DX =   -0.0001              !
 ! A1    A(2,1,3)              103.6134         -DE/DX =    0.0001              !
 --------------------------------------------------------------------------------
 Lowest energy point so far.  Saving SCF results.
 Largest change from initial coordinates is atom    2       0.956 Angstoms.
 GradGradGradGradGradGradGradGradGradGradGradGradGradGradGradGradGradGrad

 Leave Link  103 at Mon Feb 22 21:28:38 2021, MaxMem=   104857600 cpu:               3.5 elap:               0.2
 (Enter /sw/arch/RedHatEnterpriseServer7/EB_production/2019/software/Gaussian/g16.c01/l202.exe)
                          Input orientation:                          
 ---------------------------------------------------------------------
 Center     Atomic      Atomic             Coordinates (Angstroms)
 Number     Number       Type             X           Y           Z
 ---------------------------------------------------------------------
      1          8           0       -0.013818   -0.019550    0.000000
      2          1           0       -0.290902    0.913320    0.000000
      3          1           0        0.958060    0.030180   -0.000000
 ---------------------------------------------------------------------
                    Distance matrix (angstroms):
                    1          2          3
     1  O    0.000000
     2  H    0.973150   0.000000
     3  H    0.973150   1.529655   0.000000
 Stoichiometry    H2O
 Framework group  C2V[C2(O),SGV(H2)]
 Deg. of freedom     2
 Full point group                 C2V     NOp   4
 RotChk:  IX=0 Diff= 1.57D-15
 Largest Abelian subgroup         C2V     NOp   4
 Largest concise Abelian subgroup C2      NOp   2
                         Standard orientation:                         
 ---------------------------------------------------------------------
 Center     Atomic      Atomic             Coordinates (Angstroms)
 Number     Number       Type             X           Y           Z
 ---------------------------------------------------------------------
      1          8           0        0.000000    0.000000    0.120343
      2          1           0        0.000000    0.764827   -0.481372
      3          1           0       -0.000000   -0.764827   -0.481372
 ---------------------------------------------------------------------
 Rotational constants (GHZ):         779.7696335         428.6228838         276.5881981
 Leave Link  202 at Mon Feb 22 21:28:38 2021, MaxMem=   104857600 cpu:               0.3 elap:               0.0
 (Enter /sw/arch/RedHatEnterpriseServer7/EB_production/2019/software/Gaussian/g16.c01/l601.exe)
 Copying SCF densities to generalized density rwf, IOpCl= 0 IROHF=0.

 **********************************************************************

            Population analysis using the SCF Density.

 **********************************************************************

 Orbital symmetries:
       Occupied  (A1) (A1) (B2) (A1) (B1)
       Virtual   (A1) (B2) (B2) (A1) (B1) (A1) (B2) (A1) (A1) (A2)
                 (B1) (B2) (B2) (A1) (A1) (B2) (B1) (A1) (B2) (A1)
                 (B1) (A2) (A1) (A1) (B2) (A1)
 The electronic state is 1-A1.
 Alpha  occ. eigenvalues --  -18.76915  -0.92616  -0.47762  -0.34346  -0.26525
 Alpha virt. eigenvalues --    0.01138   0.09013   0.32544   0.37592   0.38464
 Alpha virt. eigenvalues --    0.39085   0.53199   0.56582   1.22946   1.27485
 Alpha virt. eigenvalues --    1.44702   1.63886   1.87069   1.94493   2.13844
 Alpha virt. eigenvalues --    2.26909   2.44612   2.51549   2.70069   2.81110
 Alpha virt. eigenvalues --    2.85622   2.87816   3.07881   3.94744   4.28789
 Alpha virt. eigenvalues --   42.73705
          Condensed to atoms (all electrons):
               1          2          3
     1  O    7.976177   0.309288   0.309288
     2  H    0.309288   0.415165  -0.021830
     3  H    0.309288  -0.021830   0.415165
 Mulliken charges:
               1
     1  O   -0.594753
     2  H    0.297377
     3  H    0.297377
 Sum of Mulliken charges =  -0.00000
 Mulliken charges with hydrogens summed into heavy atoms:
               1
     1  O   -0.000000
 Electronic spatial extent (au):  <R**2>=             19.8593
 Charge=             -0.0000 electrons
 Dipole moment (field-independent basis, Debye):
    X=             -0.0000    Y=             -0.0000    Z=             -2.3928  Tot=              2.3928
 Quadrupole moment (field-independent basis, Debye-Ang):
   XX=             -7.6593   YY=             -4.3150   ZZ=             -6.3353
   XY=              0.0000   XZ=              0.0000   YZ=             -0.0000
 Traceless Quadrupole moment (field-independent basis, Debye-Ang):
   XX=             -1.5561   YY=              1.7882   ZZ=             -0.2321
   XY=              0.0000   XZ=              0.0000   YZ=             -0.0000
 Octapole moment (field-independent basis, Debye-Ang**2):
  XXX=              0.0000  YYY=             -0.0000  ZZZ=             -1.7207  XYY=             -0.0000
  XXY=             -0.0000  XXZ=             -0.4898  XZZ=             -0.0000  YZZ=              0.0000
  YYZ=             -1.4886  XYZ=             -0.0000
 Hexadecapole moment (field-independent basis, Debye-Ang**3):
 XXXX=             -6.6844 YYYY=             -6.1814 ZZZZ=             -7.3940 XXXY=             -0.0000
 XXXZ=             -0.0000 YYYX=             -0.0000 YYYZ=              0.0000 ZZZX=             -0.0000
 ZZZY=             -0.0000 XXYY=             -2.4400 XXZZ=             -2.4074 YYZZ=             -1.8965
 XXYZ=              0.0000 YYXZ=              0.0000 ZZXY=              0.0000
 N-N= 9.046377134122D+00 E-N=-1.990069599645D+02  KE= 7.617685170043D+01
 Symmetry A1   KE= 6.798911951057D+01
 Symmetry A2   KE= 5.658775463540D-35
 Symmetry B1   KE= 4.514811153661D+00
 Symmetry B2   KE= 3.672921036202D+00
 No NMR shielding tensors so no spin-rotation constants.
 Leave Link  601 at Mon Feb 22 21:28:39 2021, MaxMem=   104857600 cpu:               2.6 elap:               0.1
 (Enter /sw/arch/RedHatEnterpriseServer7/EB_production/2019/software/Gaussian/g16.c01/l9999.exe)
 Unable to Open any file for archive entry.
 1\1\GINC-TCN1744\FOpt\RBP86\TZVP\H2O1\ELENAA\22-Feb-2021\0\\#P BP86/TZ
 VP EmpiricalDispersion=GD3 SCRF=(Solvent=Water) Opt\\Particle #XLYOFNO
 QVPJJNP-UHFFFAOYSA-N\\0,1\O,-0.013818315,-0.019549869,0.\H,-0.29090204
 32,0.9133198059,0.\H,0.958060359,0.0301800592,0.\\Version=ES64L-G16Rev
 C.01\State=1-A1\HF=-76.4684307\RMSD=1.364e-09\RMSF=4.957e-05\Dipole=0.
 5435132,0.7686525,0.\Quadrupole=0.8288185,0.3281134,-1.1569319,-0.7080
 798,0.,0.\PG=C02V [C2(O1),SGV(H2)]\\@
 The archive entry for this job was punched.


 IF YOU DON'T HAVE THE LAW - ARGUE THE FACTS.
 IF YOU DON'T HAVE THE FACTS - ARGUE THE LAW.
 IF YOU DON'T HAVE EITHER - POUND THE TABLE.
 Job cpu time:       0 days  0 hours  2 minutes 59.6 seconds.
 Elapsed time:       0 days  0 hours  0 minutes  7.2 seconds.
 File lengths (MBytes):  RWF=     10 Int=      0 D2E=      0 Chk=      2 Scr=      1
 Normal termination of Gaussian 16 at Mon Feb 22 21:28:39 2021.
 Initial command:
 /sw/arch/RedHatEnterpriseServer7/EB_production/2019/software/Gaussian/g16.c01/l1.exe "/scratch-local/elenaa.9715297/Gau-12739.inp" -scrdir="/scratch-local/elenaa.9715297/"
 Entering Link 1 = /sw/arch/RedHatEnterpriseServer7/EB_production/2019/software/Gaussian/g16.c01/l1.exe PID=     13995.
  
 Copyright (c) 1988-2019, Gaussian, Inc.  All Rights Reserved.
  
 This is part of the Gaussian(R) 16 program.  It is based on
 the Gaussian(R) 09 system (copyright 2009, Gaussian, Inc.),
 the Gaussian(R) 03 system (copyright 2003, Gaussian, Inc.),
 the Gaussian(R) 98 system (copyright 1998, Gaussian, Inc.),
 the Gaussian(R) 94 system (copyright 1995, Gaussian, Inc.),
 the Gaussian 92(TM) system (copyright 1992, Gaussian, Inc.),
 the Gaussian 90(TM) system (copyright 1990, Gaussian, Inc.),
 the Gaussian 88(TM) system (copyright 1988, Gaussian, Inc.),
 the Gaussian 86(TM) system (copyright 1986, Carnegie Mellon
 University), and the Gaussian 82(TM) system (copyright 1983,
 Carnegie Mellon University). Gaussian is a federally registered
 trademark of Gaussian, Inc.
  
 This software contains proprietary and confidential information,
 including trade secrets, belonging to Gaussian, Inc.
  
 This software is provided under written license and may be
 used, copied, transmitted, or stored only in accord with that
 written license.
  
 The following legend is applicable only to US Government
 contracts under FAR:
  
                    RESTRICTED RIGHTS LEGEND
  
 Use, reproduction and disclosure by the US Government is
 subject to restrictions as set forth in subparagraphs (a)
 and (c) of the Commercial Computer Software - Restricted
 Rights clause in FAR 52.227-19.
  
 Gaussian, Inc.
 340 Quinnipiac St., Bldg. 40, Wallingford CT 06492
  
  
 ---------------------------------------------------------------
 Warning -- This program may not be used in any manner that
 competes with the business of Gaussian, Inc. or will provide
 assistance to any competitor of Gaussian, Inc.  The licensee
 of this program is prohibited from giving any competitor of
 Gaussian, Inc. access to this program.  By using this program,
 the user acknowledges that Gaussian, Inc. is engaged in the
 business of creating and licensing software in the field of
 computational chemistry and represents and warrants to the
 licensee that it is not a competitor of Gaussian, Inc. and that
 it will not use this program in any manner prohibited above.
 ---------------------------------------------------------------
  

 Cite this work as:
 Gaussian 16, Revision C.01,
 M. J. Frisch, G. W. Trucks, H. B. Schlegel, G. E. Scuseria, 
 M. A. Robb, J. R. Cheeseman, G. Scalmani, V. Barone, 
 G. A. Petersson, H. Nakatsuji, X. Li, M. Caricato, A. V. Marenich, 
 J. Bloino, B. G. Janesko, R. Gomperts, B. Mennucci, H. P. Hratchian, 
 J. V. Ortiz, A. F. Izmaylov, J. L. Sonnenberg, D. Williams-Young, 
 F. Ding, F. Lipparini, F. Egidi, J. Goings, B. Peng, A. Petrone, 
 T. Henderson, D. Ranasinghe, V. G. Zakrzewski, J. Gao, N. Rega, 
 G. Zheng, W. Liang, M. Hada, M. Ehara, K. Toyota, R. Fukuda, 
 J. Hasegawa, M. Ishida, T. Nakajima, Y. Honda, O. Kitao, H. Nakai, 
 T. Vreven, K. Throssell, J. A. Montgomery, Jr., J. E. Peralta, 
 F. Ogliaro, M. J. Bearpark, J. J. Heyd, E. N. Brothers, K. N. Kudin, 
 V. N. Staroverov, T. A. Keith, R. Kobayashi, J. Normand, 
 K. Raghavachari, A. P. Rendell, J. C. Burant, S. S. Iyengar, 
 J. Tomasi, M. Cossi, J. M. Millam, M. Klene, C. Adamo, R. Cammi, 
 J. W. Ochterski, R. L. Martin, K. Morokuma, O. Farkas, 
 J. B. Foresman, and D. J. Fox, Gaussian, Inc., Wallingford CT, 2019.
 
 ******************************************
 Gaussian 16:  ES64L-G16RevC.01  3-Jul-2019
                22-Feb-2021 
 ******************************************
 %chk=XLYOFNOQVPJJNP-UHFFFAOYSA-N.chk
 %NProcShared=32
 Will use up to   32 processors via shared memory.
 ---------------------------------------------------------
 # BP86/TZVP SCRF=COSMORS geom=CHECKPOINT guess=CHECKPOINT
 ---------------------------------------------------------
 1/29=2,38=1,172=1/1;
 2/12=2,40=1/2;
 3/5=19,7=101,11=2,14=-4,25=1,30=1,70=12101,74=404,116=-2/1,2,3;
 4/5=1/1;
 5/5=2,38=6/2;
 6/7=2,8=2,9=2,10=2,28=1/1;
 99/5=1,9=1/99;
 -------------------------------------------
 COSMO-file for #XLYOFNOQVPJJNP-UHFFFAOYSA-N
 -------------------------------------------
 Structure from the checkpoint file:  "XLYOFNOQVPJJNP-UHFFFAOYSA-N.chk"
 Charge =  0 Multiplicity = 1
 Redundant internal coordinates found in file.  (old form).
 O,0,-0.013818315,-0.019549869,0.
 H,0,-0.2909020432,0.9133198059,0.
 H,0,0.958060359,0.0301800592,0.
 Recover connectivity data from disk.
                           ----------------------------
                           !    Current Parameters    !
                           ! (Angstroms and Degrees)  !
 --------------------------                            --------------------------
 ! Name  Definition              Value                                          !
 --------------------------------------------------------------------------------
 ! R1    R(1,2)                  0.9732                                         !
 ! R2    R(1,3)                  0.9732                                         !
 ! A1    A(2,1,3)              103.6134                                         !
 --------------------------------------------------------------------------------
                          Input orientation:                          
 ---------------------------------------------------------------------
 Center     Atomic      Atomic             Coordinates (Angstroms)
 Number     Number       Type             X           Y           Z
 ---------------------------------------------------------------------
      1          8           0       -0.013818   -0.019550   -0.000000
      2          1           0       -0.290902    0.913320    0.000000
      3          1           0        0.958060    0.030180   -0.000000
 ---------------------------------------------------------------------
                    Distance matrix (angstroms):
                    1          2          3
     1  O    0.000000
     2  H    0.973150   0.000000
     3  H    0.973150   1.529655   0.000000
 Stoichiometry    H2O
 Framework group  C2V[C2(O),SGV(H2)]
 Deg. of freedom     2
 Full point group                 C2V     NOp   4
 Largest Abelian subgroup         C2V     NOp   4
 Largest concise Abelian subgroup C2      NOp   2
                         Standard orientation:                         
 ---------------------------------------------------------------------
 Center     Atomic      Atomic             Coordinates (Angstroms)
 Number     Number       Type             X           Y           Z
 ---------------------------------------------------------------------
      1          8           0        0.000000    0.000000    0.120343
      2          1           0       -0.000000    0.764827   -0.481372
      3          1           0       -0.000000   -0.764827   -0.481372
 ---------------------------------------------------------------------
 Rotational constants (GHZ):         779.7696335         428.6228838         276.5881981
 Standard basis: TZVP (5D, 7F)
 There are    16 symmetry adapted cartesian basis functions of A1  symmetry.
 There are     2 symmetry adapted cartesian basis functions of A2  symmetry.
 There are     5 symmetry adapted cartesian basis functions of B1  symmetry.
 There are     9 symmetry adapted cartesian basis functions of B2  symmetry.
 There are    15 symmetry adapted basis functions of A1  symmetry.
 There are     2 symmetry adapted basis functions of A2  symmetry.
 There are     5 symmetry adapted basis functions of B1  symmetry.
 There are     9 symmetry adapted basis functions of B2  symmetry.
    31 basis functions,    51 primitive gaussians,    32 cartesian basis functions
     5 alpha electrons        5 beta electrons
       nuclear repulsion energy         9.0463864481 Hartrees.
 NAtoms=    3 NActive=    3 NUniq=    2 SFac= 2.25D+00 NAtFMM=   60 NAOKFM=F Big=F
 Integral buffers will be    131072 words long.
 Raffenetti 2 integral format.
 Two-electron integral symmetry is turned on.
 Warning! Using old PCM defaults because the COSMOthermo output has been requested.
 These settings can be overridden by following keywords.
 ------------------------------------------------------------------------------
 Polarizable Continuum Model (PCM)
 =================================
 Model                : C-PCM.
 Atomic radii         : Klamt.
 XCosmo               : -1.000 (infinite dielectric limit)
 Polarization charges : Electronic and nuclear charges.
 Charge compensation  : Type 3 (Electronic density weighted correction).
 Solution method      : On-the-fly selection.
 Cavity type          : VdW (van der Waals Surface) (Alpha=1.000).
 Cavity algorithm     : GePol (No added spheres)
                        Default sphere list used, NSphG=    3.
                        Tesserae with average area of 0.200 Ang**2.
                        Smoothing algorithm: None.
                        Polarization charges: point-like.
                        Self-potential: constant (ISelfS= 1).
                        Self-field    : global E.n sum rule (ISelfD= 3).
 Solvent              : Water, Eps=  78.355300 Eps(inf)=   1.777849
 ------------------------------------------------------------------------------
 Spheres list:
 ISph  on   Nord     Re0    Alpha      Xe            Ye            Ze
    1   O      1    1.7200  1.000      0.000000      0.000000      0.120343
    2   H      2    1.3000  1.000      0.000000      0.764827     -0.481372
    3   H      3    1.3000  1.000     -0.000000     -0.764827     -0.481372
 ------------------------------------------------------------------------------
 Using symmetry in molecular cavity generation.
 One-electron integrals computed using PRISM.
 PrsmSu:  requested number of processors reduced to:  30 ShMem   1 Linda.
 NBasis=    31 RedAO= T EigKep=  1.14D-02  NBF=    15     2     5     9
 NBsUse=    31 1.00D-06 EigRej= -1.00D+00 NBFU=    15     2     5     9
 Initial guess from the checkpoint file:  "XLYOFNOQVPJJNP-UHFFFAOYSA-N.chk"
 B after Tr=    -0.000000   -0.000000   -0.000000
         Rot=    1.000000    0.000000    0.000000   -0.000000 Ang=   0.00 deg.
 Initial guess orbital symmetries:
       Occupied  (A1) (A1) (B2) (A1) (B1)
       Virtual   (A1) (B2) (B2) (A1) (B1) (A1) (B2) (A1) (A1) (A2)
                 (B1) (B2) (B2) (A1) (A1) (B2) (B1) (A1) (B2) (A1)
                 (B1) (A2) (A1) (A1) (B2) (A1)
 Keep J ints in memory in symmetry-blocked form, NReq=27767747.
 Requested convergence on RMS density matrix=1.00D-08 within 128 cycles.
 Requested convergence on MAX density matrix=1.00D-06.
 Requested convergence on             energy=1.00D-06.
 No special actions if energy rises.
 Inv3:  Mode=1 IEnd=      245388.
 Iteration    1 A*A^-1 deviation from unit magnitude is 2.44D-15 for     36.
 Iteration    1 A*A^-1 deviation from orthogonality  is 8.33D-16 for    206     59.
 Iteration    1 A^-1*A deviation from unit magnitude is 2.22D-15 for     31.
 Iteration    1 A^-1*A deviation from orthogonality  is 7.60D-16 for    129     69.
 Error on nuclear    polarization charges =  0.00363
 Error on electronic polarization charges = -0.01585
 SCF Done:  E(RB-P86) =  -76.4731936263     A.U. after    7 cycles
            NFock=  7  Conv=0.46D-08     -V/T= 2.0040
 --------------------------------------------------------------------
 Variational C-PCM results
 =========================
 <psi(f)|   H    |psi(f)>                     (a.u.) =     -76.458882
 <psi(f)|H+V(f)/2|psi(f)>                     (a.u.) =     -76.473194
 Total free energy in solution:
 - with all non electrostatic terms           (a.u.) =     -76.470012
 --------------------------------------------------------------------
 (Polarized solute)-Solvent               (kcal/mol) =      -8.98
 --------------------------------------------------------------------
 Cavitation energy                        (kcal/mol) =       5.67
 Dispersion energy                        (kcal/mol) =      -4.20
 Repulsion energy                         (kcal/mol) =       0.53
 Total non electrostatic                  (kcal/mol) =       2.00
 --------------------------------------------------------------------
 Partition over spheres:
 Sphere  on Atom  Surface  Charge   GEl     GCav    GDR
    1      O1      24.60   0.256   -4.72    3.06   -1.88
    2      H2       9.27  -0.128   -2.13    1.31   -0.90
    3      H3       9.27  -0.128   -2.13    1.31   -0.90
 --------------------------------------------------------------------
 - cavitation energy not included in the total energy.
 - dispersion energy not included in the total energy.
 - repulsion  energy not included in the total energy.
 After PCM corrections, the energy is  -76.4731936263     a.u.
 --------------------------------------------------------------------
 Writing COSMO formatted file "XLYOFNOQVPJJNP-UHFFFAOYSA-N.cosmo"
 Recomputed dielectric energy= -0.014390 old= -0.014312 diff=-7.84D-05

 **********************************************************************

            Population analysis using the SCF Density.

 **********************************************************************

 Orbital symmetries:
       Occupied  (A1) (A1) (B2) (A1) (B1)
       Virtual   (A1) (B2) (B2) (A1) (B1) (A1) (B2) (A1) (A1) (A2)
                 (B1) (B2) (B2) (A1) (A1) (B2) (B1) (A1) (B2) (A1)
                 (B1) (A2) (A1) (A1) (B2) (A1)
 The electronic state is 1-A1.
 Alpha  occ. eigenvalues --  -18.76529  -0.92161  -0.47205  -0.34173  -0.26390
 Alpha virt. eigenvalues --    0.01979   0.09964   0.32837   0.37372   0.38351
 Alpha virt. eigenvalues --    0.39697   0.53462   0.56889   1.23724   1.28358
 Alpha virt. eigenvalues --    1.45426   1.64815   1.87981   1.95396   2.14603
 Alpha virt. eigenvalues --    2.27626   2.44693   2.51574   2.70558   2.81444
 Alpha virt. eigenvalues --    2.86010   2.88179   3.08388   3.95335   4.29344
 Alpha virt. eigenvalues --   42.74065
          Condensed to atoms (all electrons):
               1          2          3
     1  O    8.009238   0.311344   0.311344
     2  H    0.311344   0.393344  -0.020652
     3  H    0.311344  -0.020652   0.393344
 Mulliken charges:
               1
     1  O   -0.631926
     2  H    0.315963
     3  H    0.315963
 Sum of Mulliken charges =   0.00000
 Mulliken charges with hydrogens summed into heavy atoms:
               1
     1  O    0.000000
 Electronic spatial extent (au):  <R**2>=             19.8337
 Charge=              0.0000 electrons
 Dipole moment (field-independent basis, Debye):
    X=             -0.0000    Y=             -0.0000    Z=             -2.5184  Tot=              2.5184
 Quadrupole moment (field-independent basis, Debye-Ang):
   XX=             -7.6899   YY=             -4.2573   ZZ=             -6.3279
   XY=              0.0000   XZ=              0.0000   YZ=              0.0000
 Traceless Quadrupole moment (field-independent basis, Debye-Ang):
   XX=             -1.5982   YY=              1.8344   ZZ=             -0.2362
   XY=              0.0000   XZ=              0.0000   YZ=              0.0000
 Octapole moment (field-independent basis, Debye-Ang**2):
  XXX=              0.0000  YYY=              0.0000  ZZZ=             -1.8705  XYY=             -0.0000
  XXY=             -0.0000  XXZ=             -0.5309  XZZ=             -0.0000  YZZ=             -0.0000
  YYZ=             -1.5815  XYZ=             -0.0000
 Hexadecapole moment (field-independent basis, Debye-Ang**3):
 XXXX=             -6.7498 YYYY=             -6.0420 ZZZZ=             -7.3866 XXXY=             -0.0000
 XXXZ=             -0.0000 YYYX=              0.0000 YYYZ=              0.0000 ZZZX=             -0.0000
 ZZZY=             -0.0000 XXYY=             -2.4357 XXZZ=             -2.4187 YYZZ=             -1.8571
 XXYZ=             -0.0000 YYXZ=              0.0000 ZZXY=              0.0000
 N-N= 9.046386448051D+00 E-N=-1.990167689477D+02  KE= 7.616906335281D+01
 Symmetry A1   KE= 6.798175299205D+01
 Symmetry A2   KE= 4.194620254085D-34
 Symmetry B1   KE= 4.496013048216D+00
 Symmetry B2   KE= 3.691297312541D+00
 Unable to Open any file for archive entry.
 1\1\GINC-TCN1744\SP\RBP86\TZVP\H2O1\ELENAA\22-Feb-2021\0\\# BP86/TZVP 
 SCRF=COSMORS geom=CHECKPOINT guess=CHECKPOINT\\COSMO-file for #XLYOFNO
 QVPJJNP-UHFFFAOYSA-N\\0,1\O,0,-0.013818315,-0.019549869,0.\H,0,-0.2909
 020432,0.9133198059,0.\H,0,0.958060359,0.0301800592,0.\\Version=ES64L-
 G16RevC.01\State=1-A1\HF=-76.4731936\RMSD=4.588e-09\Dipole=0.5720497,0
 .8090097,0.\Quadrupole=0.8506742,0.3375219,-1.1881961,-0.7256821,0.,0.
 \PG=C02V [C2(O1),SGV(H2)]\\@
 The archive entry for this job was punched.


 ALL PAPERS THAT YOU SAVE WILL NEVER BE NEEDED UNTIL
 SUCH TIME AS THEY ARE DISPOSED OF, WHEN THEY BECOME
 ESSENTIAL.

           -- JOHN CORCORAN IN
              PAUL DICKSON'S "THE OFFICIAL RULES"
 Job cpu time:       0 days  0 hours  0 minutes 41.1 seconds.
 Elapsed time:       0 days  0 hours  0 minutes  1.6 seconds.
 File lengths (MBytes):  RWF=      6 Int=      0 D2E=      0 Chk=      2 Scr=      1
 Normal termination of Gaussian 16 at Mon Feb 22 21:28:41 2021.
