 Entering Gaussian System, Link 0=g16
 Input=XPFVYQJUAUNWIW-UHFFFAOYSA-N.gjf
 Output=XPFVYQJUAUNWIW-UHFFFAOYSA-N.log
 Initial command:
 /sw/arch/RedHatEnterpriseServer7/EB_production/2019/software/Gaussian/g16.c01/l1.exe "/scratch-local/elenaa.9715300/Gau-20384.inp" -scrdir="/scratch-local/elenaa.9715300/"
 Entering Link 1 = /sw/arch/RedHatEnterpriseServer7/EB_production/2019/software/Gaussian/g16.c01/l1.exe PID=     20385.
  
 Copyright (c) 1988-2019, Gaussian, Inc.  All Rights Reserved.
  
 This is part of the Gaussian(R) 16 program.  It is based on
 the Gaussian(R) 09 system (copyright 2009, Gaussian, Inc.),
 the Gaussian(R) 03 system (copyright 2003, Gaussian, Inc.),
 the Gaussian(R) 98 system (copyright 1998, Gaussian, Inc.),
 the Gaussian(R) 94 system (copyright 1995, Gaussian, Inc.),
 the Gaussian 92(TM) system (copyright 1992, Gaussian, Inc.),
 the Gaussian 90(TM) system (copyright 1990, Gaussian, Inc.),
 the Gaussian 88(TM) system (copyright 1988, Gaussian, Inc.),
 the Gaussian 86(TM) system (copyright 1986, Carnegie Mellon
 University), and the Gaussian 82(TM) system (copyright 1983,
 Carnegie Mellon University). Gaussian is a federally registered
 trademark of Gaussian, Inc.
  
 This software contains proprietary and confidential information,
 including trade secrets, belonging to Gaussian, Inc.
  
 This software is provided under written license and may be
 used, copied, transmitted, or stored only in accord with that
 written license.
  
 The following legend is applicable only to US Government
 contracts under FAR:
  
                    RESTRICTED RIGHTS LEGEND
  
 Use, reproduction and disclosure by the US Government is
 subject to restrictions as set forth in subparagraphs (a)
 and (c) of the Commercial Computer Software - Restricted
 Rights clause in FAR 52.227-19.
  
 Gaussian, Inc.
 340 Quinnipiac St., Bldg. 40, Wallingford CT 06492
  
  
 ---------------------------------------------------------------
 Warning -- This program may not be used in any manner that
 competes with the business of Gaussian, Inc. or will provide
 assistance to any competitor of Gaussian, Inc.  The licensee
 of this program is prohibited from giving any competitor of
 Gaussian, Inc. access to this program.  By using this program,
 the user acknowledges that Gaussian, Inc. is engaged in the
 business of creating and licensing software in the field of
 computational chemistry and represents and warrants to the
 licensee that it is not a competitor of Gaussian, Inc. and that
 it will not use this program in any manner prohibited above.
 ---------------------------------------------------------------
  

 Cite this work as:
 Gaussian 16, Revision C.01,
 M. J. Frisch, G. W. Trucks, H. B. Schlegel, G. E. Scuseria, 
 M. A. Robb, J. R. Cheeseman, G. Scalmani, V. Barone, 
 G. A. Petersson, H. Nakatsuji, X. Li, M. Caricato, A. V. Marenich, 
 J. Bloino, B. G. Janesko, R. Gomperts, B. Mennucci, H. P. Hratchian, 
 J. V. Ortiz, A. F. Izmaylov, J. L. Sonnenberg, D. Williams-Young, 
 F. Ding, F. Lipparini, F. Egidi, J. Goings, B. Peng, A. Petrone, 
 T. Henderson, D. Ranasinghe, V. G. Zakrzewski, J. Gao, N. Rega, 
 G. Zheng, W. Liang, M. Hada, M. Ehara, K. Toyota, R. Fukuda, 
 J. Hasegawa, M. Ishida, T. Nakajima, Y. Honda, O. Kitao, H. Nakai, 
 T. Vreven, K. Throssell, J. A. Montgomery, Jr., J. E. Peralta, 
 F. Ogliaro, M. J. Bearpark, J. J. Heyd, E. N. Brothers, K. N. Kudin, 
 V. N. Staroverov, T. A. Keith, R. Kobayashi, J. Normand, 
 K. Raghavachari, A. P. Rendell, J. C. Burant, S. S. Iyengar, 
 J. Tomasi, M. Cossi, J. M. Millam, M. Klene, C. Adamo, R. Cammi, 
 J. W. Ochterski, R. L. Martin, K. Morokuma, O. Farkas, 
 J. B. Foresman, and D. J. Fox, Gaussian, Inc., Wallingford CT, 2019.
 
 ******************************************
 Gaussian 16:  ES64L-G16RevC.01  3-Jul-2019
                22-Feb-2021 
 ******************************************
 %chk=XPFVYQJUAUNWIW-UHFFFAOYSA-N.chk
 %NProcShared=32
 Will use up to   32 processors via shared memory.
 -------------------------------------------------------------
 #P BP86/TZVP EmpiricalDispersion=GD3 SCRF=(Solvent=Water) Opt
 -------------------------------------------------------------
 1/18=20,19=15,26=3,38=1/1,3;
 2/9=110,12=2,17=6,18=5,40=1/2;
 3/5=19,7=101,11=2,25=1,30=1,70=2201,71=1,72=1,74=404,124=31/1,2,3;
 4//1;
 5/5=2,38=5,53=1/2;
 6/7=2,8=2,9=2,10=2,28=1/1;
 7//1,2,3,16;
 1/18=20,19=15,26=3/3(2);
 2/9=110/2;
 99//99;
 2/9=110/2;
 3/5=19,7=101,11=2,25=1,30=1,70=2205,71=1,72=1,74=404,124=31/1,2,3;
 4/5=5,16=3,69=1/1;
 5/5=2,38=5,53=1/2;
 7//1,2,3,16;
 1/18=20,19=15,26=3/3(-5);
 2/9=110/2;
 6/7=2,8=2,9=2,10=2,19=2,28=1/1;
 99/9=1/99;
 Leave Link    1 at Mon Feb 22 21:29:08 2021, MaxMem=           0 cpu:               1.9 elap:               0.1
 (Enter /sw/arch/RedHatEnterpriseServer7/EB_production/2019/software/Gaussian/g16.c01/l101.exe)
 -------------------------------------
 Particle #XPFVYQJUAUNWIW-UHFFFAOYSA-N
 -------------------------------------
 Symbolic Z-matrix:
 Charge =  0 Multiplicity = 1
 O                     1.71993   0.595     0.04026 
 C                     0.41796   0.12009  -0.26829 
 C                    -0.22551   1.05738  -1.19686 
 C                    -0.99523   2.16241  -0.84355 
 C                    -1.3956    2.77239  -2.02009 
 C                    -0.85586   2.023    -3.05635 
 O                    -0.14692   0.98618  -2.54849 
 H                     2.09087  -0.06492   0.66048 
 H                    -0.16431   0.03173   0.65073 
 H                     0.48943  -0.86659  -0.72842 
 H                    -1.22353   2.46744   0.10463 
 H                    -1.97322   3.60884  -2.10595 
 H                    -0.97471   2.22265  -4.05062 
 
 ITRead=  0  0  0  0  0  0  0  0  0  0  0  0  0
 MicOpt= -1 -1 -1 -1 -1 -1 -1 -1 -1 -1 -1 -1 -1
 NAtoms=     13 NQM=       13 NQMF=       0 NMMI=      0 NMMIF=      0
                NMic=       0 NMicF=      0.
                    Isotopes and Nuclear Properties:
 (Nuclear quadrupole moments (NQMom) in fm**2, nuclear magnetic moments (NMagM)
  in nuclear magnetons)

  Atom         1           2           3           4           5           6           7           8           9          10
 IAtWgt=          16          12          12          12          12          12          16           1           1           1
 AtmWgt=  15.9949146  12.0000000  12.0000000  12.0000000  12.0000000  12.0000000  15.9949146   1.0078250   1.0078250   1.0078250
 NucSpn=           0           0           0           0           0           0           0           1           1           1
 AtZEff=  -0.0000000  -0.0000000  -0.0000000  -0.0000000  -0.0000000  -0.0000000  -0.0000000  -0.0000000  -0.0000000  -0.0000000
 NQMom=    0.0000000   0.0000000   0.0000000   0.0000000   0.0000000   0.0000000   0.0000000   0.0000000   0.0000000   0.0000000
 NMagM=    0.0000000   0.0000000   0.0000000   0.0000000   0.0000000   0.0000000   0.0000000   2.7928460   2.7928460   2.7928460
 AtZNuc=   8.0000000   6.0000000   6.0000000   6.0000000   6.0000000   6.0000000   8.0000000   1.0000000   1.0000000   1.0000000

  Atom        11          12          13
 IAtWgt=           1           1           1
 AtmWgt=   1.0078250   1.0078250   1.0078250
 NucSpn=           1           1           1
 AtZEff=  -0.0000000  -0.0000000  -0.0000000
 NQMom=    0.0000000   0.0000000   0.0000000
 NMagM=    2.7928460   2.7928460   2.7928460
 AtZNuc=   1.0000000   1.0000000   1.0000000
 Leave Link  101 at Mon Feb 22 21:29:08 2021, MaxMem=   104857600 cpu:               2.9 elap:               0.1
 (Enter /sw/arch/RedHatEnterpriseServer7/EB_production/2019/software/Gaussian/g16.c01/l103.exe)

 GradGradGradGradGradGradGradGradGradGradGradGradGradGradGradGradGradGrad
 Berny optimization.
 Initialization pass.
                           ----------------------------
                           !    Initial Parameters    !
                           ! (Angstroms and Degrees)  !
 --------------------------                            --------------------------
 ! Name  Definition              Value          Derivative Info.                !
 --------------------------------------------------------------------------------
 ! R1    R(1,2)                  1.4198         estimate D2E/DX2                !
 ! R2    R(1,8)                  0.9787         estimate D2E/DX2                !
 ! R3    R(2,3)                  1.4679         estimate D2E/DX2                !
 ! R4    R(2,9)                  1.0915         estimate D2E/DX2                !
 ! R5    R(2,10)                 1.091          estimate D2E/DX2                !
 ! R6    R(3,4)                  1.3923         estimate D2E/DX2                !
 ! R7    R(3,7)                  1.3558         estimate D2E/DX2                !
 ! R8    R(4,5)                  1.3844         estimate D2E/DX2                !
 ! R9    R(4,11)                 1.0219         estimate D2E/DX2                !
 ! R10   R(5,6)                  1.3881         estimate D2E/DX2                !
 ! R11   R(5,12)                 1.0201         estimate D2E/DX2                !
 ! R12   R(6,7)                  1.3548         estimate D2E/DX2                !
 ! R13   R(6,13)                 1.0211         estimate D2E/DX2                !
 ! A1    A(2,1,8)              105.055          estimate D2E/DX2                !
 ! A2    A(1,2,3)              109.018          estimate D2E/DX2                !
 ! A3    A(1,2,9)              109.4676         estimate D2E/DX2                !
 ! A4    A(1,2,10)             109.5163         estimate D2E/DX2                !
 ! A5    A(3,2,9)              110.5147         estimate D2E/DX2                !
 ! A6    A(3,2,10)             109.8388         estimate D2E/DX2                !
 ! A7    A(9,2,10)             108.4706         estimate D2E/DX2                !
 ! A8    A(2,3,4)              126.0581         estimate D2E/DX2                !
 ! A9    A(2,3,7)              124.8684         estimate D2E/DX2                !
 ! A10   A(4,3,7)              109.0697         estimate D2E/DX2                !
 ! A11   A(3,4,5)              107.0932         estimate D2E/DX2                !
 ! A12   A(3,4,11)             126.5772         estimate D2E/DX2                !
 ! A13   A(5,4,11)             126.3296         estimate D2E/DX2                !
 ! A14   A(4,5,6)              106.5065         estimate D2E/DX2                !
 ! A15   A(4,5,12)             126.623          estimate D2E/DX2                !
 ! A16   A(6,5,12)             126.8705         estimate D2E/DX2                !
 ! A17   A(5,6,7)              109.6812         estimate D2E/DX2                !
 ! A18   A(5,6,13)             125.1793         estimate D2E/DX2                !
 ! A19   A(7,6,13)             125.1395         estimate D2E/DX2                !
 ! A20   A(3,7,6)              107.6491         estimate D2E/DX2                !
 ! D1    D(8,1,2,3)            179.7309         estimate D2E/DX2                !
 ! D2    D(8,1,2,9)             58.7338         estimate D2E/DX2                !
 ! D3    D(8,1,2,10)           -60.0692         estimate D2E/DX2                !
 ! D4    D(1,2,3,4)            -89.5903         estimate D2E/DX2                !
 ! D5    D(1,2,3,7)             89.6135         estimate D2E/DX2                !
 ! D6    D(9,2,3,4)             30.7646         estimate D2E/DX2                !
 ! D7    D(9,2,3,7)           -150.0315         estimate D2E/DX2                !
 ! D8    D(10,2,3,4)           150.4088         estimate D2E/DX2                !
 ! D9    D(10,2,3,7)           -30.3873         estimate D2E/DX2                !
 ! D10   D(2,3,4,5)            179.5016         estimate D2E/DX2                !
 ! D11   D(2,3,4,11)            -0.5341         estimate D2E/DX2                !
 ! D12   D(7,3,4,5)              0.1928         estimate D2E/DX2                !
 ! D13   D(7,3,4,11)          -179.843          estimate D2E/DX2                !
 ! D14   D(2,3,7,6)           -179.5034         estimate D2E/DX2                !
 ! D15   D(4,3,7,6)             -0.1843         estimate D2E/DX2                !
 ! D16   D(3,4,5,6)             -0.1241         estimate D2E/DX2                !
 ! D17   D(3,4,5,12)           179.9253         estimate D2E/DX2                !
 ! D18   D(11,4,5,6)           179.9115         estimate D2E/DX2                !
 ! D19   D(11,4,5,12)           -0.0391         estimate D2E/DX2                !
 ! D20   D(4,5,6,7)              0.0136         estimate D2E/DX2                !
 ! D21   D(4,5,6,13)          -179.975          estimate D2E/DX2                !
 ! D22   D(12,5,6,7)           179.9641         estimate D2E/DX2                !
 ! D23   D(12,5,6,13)           -0.0245         estimate D2E/DX2                !
 ! D24   D(5,6,7,3)              0.1057         estimate D2E/DX2                !
 ! D25   D(13,6,7,3)          -179.9057         estimate D2E/DX2                !
 --------------------------------------------------------------------------------
 Trust Radius=3.00D-01 FncErr=1.00D-07 GrdErr=1.00D-06 EigMax=2.50D+02 EigMin=1.00D-04
 Number of steps in this run=     68 maximum allowed number of steps=    100.
 GradGradGradGradGradGradGradGradGradGradGradGradGradGradGradGradGradGrad

 Leave Link  103 at Mon Feb 22 21:29:09 2021, MaxMem=   104857600 cpu:               0.8 elap:               0.1
 (Enter /sw/arch/RedHatEnterpriseServer7/EB_production/2019/software/Gaussian/g16.c01/l202.exe)
                          Input orientation:                          
 ---------------------------------------------------------------------
 Center     Atomic      Atomic             Coordinates (Angstroms)
 Number     Number       Type             X           Y           Z
 ---------------------------------------------------------------------
      1          8           0        1.719930    0.595000    0.040260
      2          6           0        0.417960    0.120090   -0.268290
      3          6           0       -0.225510    1.057380   -1.196860
      4          6           0       -0.995230    2.162410   -0.843550
      5          6           0       -1.395600    2.772390   -2.020090
      6          6           0       -0.855860    2.023000   -3.056350
      7          8           0       -0.146920    0.986180   -2.548490
      8          1           0        2.090870   -0.064920    0.660480
      9          1           0       -0.164310    0.031730    0.650730
     10          1           0        0.489430   -0.866590   -0.728420
     11          1           0       -1.223530    2.467440    0.104630
     12          1           0       -1.973220    3.608840   -2.105950
     13          1           0       -0.974710    2.222650   -4.050620
 ---------------------------------------------------------------------
                    Distance matrix (angstroms):
                    1          2          3          4          5
     1  O    0.000000
     2  C    1.419813   0.000000
     3  C    2.351382   1.467927   0.000000
     4  C    3.257298   2.549333   1.392260   0.000000
     5  C    4.323494   3.659576   2.233400   1.384420   0.000000
     6  C    4.273508   3.607903   2.188028   2.221563   1.388070
     7  O    3.215552   2.503700   1.355784   2.238296   2.242533
     8  H    0.978654   1.922361   3.174096   4.092324   5.233666
     9  H    2.059201   1.091533   2.114070   2.731867   4.020021
    10  H    2.059428   1.091038   2.105288   3.375250   4.296967
    11  H    3.489145   2.888531   2.162912   1.021866   2.153378
    12  H    5.227696   4.611520   3.223489   2.154595   1.020130
    13  H    5.161940   4.546021   3.172239   3.207701   2.145324
                    6          7          8          9         10
     6  C    0.000000
     7  O    1.354811   0.000000
     8  H    5.182418   4.050926   0.000000
     9  H    4.264486   3.338605   2.257271   0.000000
    10  H    3.946998   2.674014   2.266347   1.770991   0.000000
    11  H    3.213176   3.223704   4.207976   2.711615   3.839786
    12  H    2.160241   3.226385   6.137302   4.864890   5.290719
    13  H    1.021057   2.114353   6.068379   5.249721   4.766983
                   11         12         13
    11  H    0.000000
    12  H    2.598364   0.000000
    13  H    4.169884   2.588491   0.000000
 Stoichiometry    C5H6O2
 Framework group  C1[X(C5H6O2)]
 Deg. of freedom    33
 Full point group                 C1      NOp   1
 Largest Abelian subgroup         C1      NOp   1
 Largest concise Abelian subgroup C1      NOp   1
                         Standard orientation:                         
 ---------------------------------------------------------------------
 Center     Atomic      Atomic             Coordinates (Angstroms)
 Number     Number       Type             X           Y           Z
 ---------------------------------------------------------------------
      1          8           0        2.333705   -0.006023   -0.688744
      2          6           0        1.621766   -0.001126    0.539664
      3          6           0        0.181207    0.005955    0.257621
      4          6           0       -0.615702    1.135380    0.091119
      5          6           0       -1.901232    0.691724   -0.168112
      6          6           0       -1.849922   -0.695335   -0.154902
      7          8           0       -0.583683   -1.102657    0.102470
      8          1           0        3.278835   -0.006160   -0.434792
      9          1           0        1.902413    0.880205    1.119264
     10          1           0        1.881994   -0.890664    1.115311
     11          1           0       -0.311577    2.109199    0.149378
     12          1           0       -2.723033    1.272255   -0.336312
     13          1           0       -2.645508   -1.314987   -0.315002
 ---------------------------------------------------------------------
 Rotational constants (GHZ):           7.0714219           1.9299291           1.6728253
 Leave Link  202 at Mon Feb 22 21:29:09 2021, MaxMem=   104857600 cpu:               1.0 elap:               0.1
 (Enter /sw/arch/RedHatEnterpriseServer7/EB_production/2019/software/Gaussian/g16.c01/l301.exe)
 Standard basis: TZVP (5D, 7F)
 Ernie: Thresh=  0.10000D-02 Tol=  0.10000D-05 Strict=F.
 There are   176 symmetry adapted cartesian basis functions of A   symmetry.
 There are   169 symmetry adapted basis functions of A   symmetry.
   169 basis functions,   293 primitive gaussians,   176 cartesian basis functions
    26 alpha electrons       26 beta electrons
       nuclear repulsion energy       291.0210099437 Hartrees.
 IExCor=  404 DFT=T Ex=B Corr=P86 ExCW=0 ScaHFX=  0.000000
 ScaDFX=  1.000000  1.000000  1.000000  1.000000 ScalE2=  1.000000  1.000000
 IRadAn=      5 IRanWt=     -1 IRanGd=            0 ICorTp=0 IEmpDi=131
 NAtoms=   13 NActive=   13 NUniq=   13 SFac= 1.00D+00 NAtFMM=   60 NAOKFM=F Big=F
 Integral buffers will be    131072 words long.
 Raffenetti 2 integral format.
 Two-electron integral symmetry is turned on.
 R6Disp:  Grimme-D3 Dispersion energy=       -0.0076482978 Hartrees.
 Nuclear repulsion after empirical dispersion term =      291.0133616460 Hartrees.
 ------------------------------------------------------------------------------
 Polarizable Continuum Model (PCM)
 =================================
 Model                : PCM.
 Atomic radii         : UFF (Universal Force Field).
 Polarization charges : Total charges.
 Charge compensation  : None.
 Solution method      : On-the-fly selection.
 Cavity type          : Scaled VdW (van der Waals Surface) (Alpha=1.100).
 Cavity algorithm     : GePol (No added spheres)
                        Default sphere list used, NSphG=   13.
                        Lebedev-Laikov grids with approx.  5.0 points / Ang**2.
                        Smoothing algorithm: York/Karplus (Gamma=1.0000).
                        Polarization charges: spherical gaussians, with
                                              point-specific exponents (IZeta= 3).
                        Self-potential: point-specific (ISelfS= 7).
                        Self-field    : sphere-specific E.n sum rule (ISelfD= 2).
 1st derivatives      : Analytical E(r).r(x)/FMM algorithm (CHGder, D1EAlg=3).
                        Cavity 1st derivative terms included.
 Solvent              : Water, Eps=  78.355300 Eps(inf)=   1.777849
 ------------------------------------------------------------------------------
 Spheres list:
 ISph  on   Nord     Re0    Alpha      Xe            Ye            Ze
    1   O      1    1.7500  1.100      2.333705     -0.006023     -0.688744
    2   C      2    1.9255  1.100      1.621766     -0.001126      0.539664
    3   C      3    1.9255  1.100      0.181207      0.005955      0.257621
    4   C      4    1.9255  1.100     -0.615702      1.135380      0.091119
    5   C      5    1.9255  1.100     -1.901232      0.691724     -0.168112
    6   C      6    1.9255  1.100     -1.849922     -0.695335     -0.154902
    7   O      7    1.7500  1.100     -0.583683     -1.102657      0.102470
    8   H      8    1.4430  1.100      3.278835     -0.006160     -0.434792
    9   H      9    1.4430  1.100      1.902413      0.880205      1.119264
   10   H     10    1.4430  1.100      1.881994     -0.890664      1.115311
   11   H     11    1.4430  1.100     -0.311577      2.109199      0.149378
   12   H     12    1.4430  1.100     -2.723033      1.272255     -0.336312
   13   H     13    1.4430  1.100     -2.645508     -1.314987     -0.315002
 ------------------------------------------------------------------------------
 GePol: Number of generator spheres                  =      13
 GePol: Total number of spheres                      =      13
 GePol: Number of exposed spheres                    =      13 (100.00%)
 GePol: Number of points                             =    1198
 GePol: Average weight of points                     =       0.13
 GePol: Minimum weight of points                     =   0.36D-10
 GePol: Maximum weight of points                     =    0.20577
 GePol: Number of points with low weight             =      77
 GePol: Fraction of low-weight points (<1% of avg)   =       6.43%
 GePol: Cavity surface area                          =    156.266 Ang**2
 GePol: Cavity volume                                =    145.007 Ang**3
 Leave Link  301 at Mon Feb 22 21:29:09 2021, MaxMem=   104857600 cpu:               1.6 elap:               0.1
 (Enter /sw/arch/RedHatEnterpriseServer7/EB_production/2019/software/Gaussian/g16.c01/l302.exe)
 NPDir=0 NMtPBC=     1 NCelOv=     1 NCel=       1 NClECP=     1 NCelD=      1
         NCelK=      1 NCelE2=     1 NClLst=     1 CellRange=     0.0.
 One-electron integrals computed using PRISM.
 One-electron integral symmetry used in STVInt
 PrsmSu:  requested number of processors reduced to:  29 ShMem   1 Linda.
 NBasis=   169 RedAO= T EigKep=  5.01D-05  NBF=   169
 NBsUse=   169 1.00D-06 EigRej= -1.00D+00 NBFU=   169
 Precomputing XC quadrature grid using
 IXCGrd= 4 IRadAn=           5 IRanWt=          -1 IRanGd=           0 AccXCQ= 0.00D+00.
 Generated NRdTot=       0 NPtTot=           0 NUsed=           0 NTot=          32
 NSgBfM=   175   175   175   175   175 MxSgAt=    13 MxSgA2=    13.
 Leave Link  302 at Mon Feb 22 21:29:09 2021, MaxMem=   104857600 cpu:               7.3 elap:               0.3
 (Enter /sw/arch/RedHatEnterpriseServer7/EB_production/2019/software/Gaussian/g16.c01/l303.exe)
 DipDrv:  MaxL=1.
 Leave Link  303 at Mon Feb 22 21:29:09 2021, MaxMem=   104857600 cpu:               3.5 elap:               0.2
 (Enter /sw/arch/RedHatEnterpriseServer7/EB_production/2019/software/Gaussian/g16.c01/l401.exe)
 ExpMin= 9.52D-02 ExpMax= 2.70D+04 ExpMxC= 9.22D+02 IAcc=3 IRadAn=         5 AccDes= 0.00D+00
 Harris functional with IExCor=  404 and IRadAn=       5 diagonalized for initial guess.
 HarFok:  IExCor=  404 AccDes= 0.00D+00 IRadAn=         5 IDoV= 1 UseB2=F ITyADJ=14
 ICtDFT=  3500011 ScaDFX=  1.000000  1.000000  1.000000  1.000000
 FoFCou: FMM=F IPFlag=           0 FMFlag=      100000 FMFlg1=           0
         NFxFlg=           0 DoJE=T BraDBF=F KetDBF=T FulRan=T
         wScrn=  0.000000 ICntrl=       500 IOpCl=  0 I1Cent=   200000004 NGrid=           0
         NMat0=    1 NMatS0=      1 NMatT0=    0 NMatD0=    1 NMtDS0=    0 NMtDT0=    0
 Petite list used in FoFCou.
 Harris En= -344.790785543370    
 JPrj=0 DoOrth=F DoCkMO=F.
 Leave Link  401 at Mon Feb 22 21:29:10 2021, MaxMem=   104857600 cpu:               7.7 elap:               0.3
 (Enter /sw/arch/RedHatEnterpriseServer7/EB_production/2019/software/Gaussian/g16.c01/l502.exe)
 Integral symmetry usage will be decided dynamically.
 Closed shell SCF:
 Using DIIS extrapolation, IDIIS=  1040.
 NGot=   104857600 LenX=   104787836 LenY=   104756419
 Requested convergence on RMS density matrix=1.00D-08 within 128 cycles.
 Requested convergence on MAX density matrix=1.00D-06.
 Requested convergence on             energy=1.00D-06.
 No special actions if energy rises.
 Fock matrices will be formed incrementally for  20 cycles.

 Cycle   1  Pass 1  IDiag  1:
 FoFJK:  IHMeth= 1 ICntrl=     500 DoSepK=F KAlg= 0 I1Cent=           0 FoldK=F
 IRaf= 950000000 NMat=       1 IRICut=       1 DoRegI=T DoRafI=F ISym2E= 0 IDoP0=0 IntGTp=1.
 FoFCou: FMM=F IPFlag=           0 FMFlag=      100000 FMFlg1=           0
         NFxFlg=           0 DoJE=T BraDBF=F KetDBF=F FulRan=T
         wScrn=  0.000000 ICntrl=       500 IOpCl=  0 I1Cent=           0 NGrid=           0
         NMat0=    1 NMatS0=      1 NMatT0=    0 NMatD0=    1 NMtDS0=    0 NMtDT0=    0
 Symmetry not used in FoFCou.
 Inv3:  Mode=1 IEnd=     4305612.
 Iteration    1 A*A^-1 deviation from unit magnitude is 3.33D-15 for    602.
 Iteration    1 A*A^-1 deviation from orthogonality  is 3.21D-15 for    803    563.
 Iteration    1 A^-1*A deviation from unit magnitude is 2.89D-15 for    367.
 Iteration    1 A^-1*A deviation from orthogonality  is 1.55D-15 for   1090    935.
 E= -344.504996185413    
 DIIS: error= 2.61D-02 at cycle   1 NSaved=   1.
 NSaved= 1 IEnMin= 1 EnMin= -344.504996185413     IErMin= 1 ErrMin= 2.61D-02
 ErrMax= 2.61D-02  0.00D+00 EMaxC= 1.00D-01 BMatC= 1.79D-01 BMatP= 1.79D-01
 IDIUse=3 WtCom= 7.39D-01 WtEn= 2.61D-01
 Coeff-Com:  0.100D+01
 Coeff-En:   0.100D+01
 Coeff:      0.100D+01
 Gap=     0.135 Goal=   None    Shift=    0.000
 GapD=    0.135 DampG=1.000 DampE=0.500 DampFc=0.5000 IDamp=-1.
 Damping current iteration by 5.00D-01
 RMSDP=1.67D-02 MaxDP=8.83D-01              OVMax= 3.12D-01

 Cycle   2  Pass 1  IDiag  1:
 RMSU=  8.21D-03    CP:  1.09D+00
 E= -344.537685864858     Delta-E=       -0.032689679445 Rises=F Damp=T
 DIIS: error= 1.44D-02 at cycle   2 NSaved=   2.
 NSaved= 2 IEnMin= 2 EnMin= -344.537685864858     IErMin= 2 ErrMin= 1.44D-02
 ErrMax= 1.44D-02  0.00D+00 EMaxC= 1.00D-01 BMatC= 3.55D-02 BMatP= 1.79D-01
 IDIUse=3 WtCom= 8.56D-01 WtEn= 1.44D-01
 Coeff-Com:  0.263D+00 0.737D+00
 Coeff-En:   0.407D+00 0.593D+00
 Coeff:      0.284D+00 0.716D+00
 Gap=     0.202 Goal=   None    Shift=    0.000
 RMSDP=5.49D-03 MaxDP=2.87D-01 DE=-3.27D-02 OVMax= 2.48D-01

 Cycle   3  Pass 1  IDiag  1:
 RMSU=  1.81D-03    CP:  1.02D+00  3.84D-01
 E= -344.654107526014     Delta-E=       -0.116421661156 Rises=F Damp=F
 DIIS: error= 1.19D-02 at cycle   3 NSaved=   3.
 NSaved= 3 IEnMin= 3 EnMin= -344.654107526014     IErMin= 3 ErrMin= 1.19D-02
 ErrMax= 1.19D-02  0.00D+00 EMaxC= 1.00D-01 BMatC= 2.16D-02 BMatP= 3.55D-02
 IDIUse=3 WtCom= 8.81D-01 WtEn= 1.19D-01
 Coeff-Com:  0.107D+00 0.436D+00 0.456D+00
 Coeff-En:   0.000D+00 0.000D+00 0.100D+01
 Coeff:      0.945D-01 0.384D+00 0.521D+00
 Gap=     0.158 Goal=   None    Shift=    0.000
 RMSDP=1.23D-03 MaxDP=3.30D-02 DE=-1.16D-01 OVMax= 7.45D-02

 Cycle   4  Pass 1  IDiag  1:
 RMSU=  7.85D-04    CP:  1.04D+00  4.59D-01  6.30D-01
 E= -344.667859829458     Delta-E=       -0.013752303444 Rises=F Damp=F
 DIIS: error= 7.46D-03 at cycle   4 NSaved=   4.
 NSaved= 4 IEnMin= 4 EnMin= -344.667859829458     IErMin= 4 ErrMin= 7.46D-03
 ErrMax= 7.46D-03  0.00D+00 EMaxC= 1.00D-01 BMatC= 6.28D-03 BMatP= 2.16D-02
 IDIUse=3 WtCom= 9.25D-01 WtEn= 7.46D-02
 Coeff-Com:  0.339D-01 0.140D+00 0.351D+00 0.475D+00
 Coeff-En:   0.000D+00 0.000D+00 0.255D+00 0.745D+00
 Coeff:      0.314D-01 0.130D+00 0.344D+00 0.495D+00
 Gap=     0.161 Goal=   None    Shift=    0.000
 RMSDP=4.12D-04 MaxDP=1.21D-02 DE=-1.38D-02 OVMax= 3.33D-02

 Cycle   5  Pass 1  IDiag  1:
 RMSU=  2.26D-04    CP:  1.04D+00  4.75D-01  7.12D-01  6.43D-01
 E= -344.672469249122     Delta-E=       -0.004609419663 Rises=F Damp=F
 DIIS: error= 2.45D-03 at cycle   5 NSaved=   5.
 NSaved= 5 IEnMin= 5 EnMin= -344.672469249122     IErMin= 5 ErrMin= 2.45D-03
 ErrMax= 2.45D-03  0.00D+00 EMaxC= 1.00D-01 BMatC= 6.66D-04 BMatP= 6.28D-03
 IDIUse=3 WtCom= 9.76D-01 WtEn= 2.45D-02
 Coeff-Com:  0.124D-01 0.471D-01 0.186D+00 0.341D+00 0.414D+00
 Coeff-En:   0.000D+00 0.000D+00 0.000D+00 0.500D-01 0.950D+00
 Coeff:      0.121D-01 0.460D-01 0.181D+00 0.334D+00 0.427D+00
 Gap=     0.160 Goal=   None    Shift=    0.000
 RMSDP=2.97D-04 MaxDP=1.66D-02 DE=-4.61D-03 OVMax= 6.71D-03

 Cycle   6  Pass 1  IDiag  1:
 RMSU=  9.54D-05    CP:  1.04D+00  4.45D-01  7.30D-01  6.60D-01  5.10D-01
 E= -344.672945434533     Delta-E=       -0.000476185412 Rises=F Damp=F
 DIIS: error= 4.49D-04 at cycle   6 NSaved=   6.
 NSaved= 6 IEnMin= 6 EnMin= -344.672945434533     IErMin= 6 ErrMin= 4.49D-04
 ErrMax= 4.49D-04  0.00D+00 EMaxC= 1.00D-01 BMatC= 2.33D-05 BMatP= 6.66D-04
 IDIUse=3 WtCom= 9.96D-01 WtEn= 4.49D-03
 Coeff-Com:  0.185D-02 0.519D-02 0.454D-01 0.103D+00 0.214D+00 0.630D+00
 Coeff-En:   0.000D+00 0.000D+00 0.000D+00 0.000D+00 0.000D+00 0.100D+01
 Coeff:      0.184D-02 0.516D-02 0.452D-01 0.103D+00 0.213D+00 0.632D+00
 Gap=     0.160 Goal=   None    Shift=    0.000
 RMSDP=5.27D-05 MaxDP=2.84D-03 DE=-4.76D-04 OVMax= 1.01D-03

 Cycle   7  Pass 1  IDiag  1:
 RMSU=  1.53D-05    CP:  1.04D+00  4.50D-01  7.29D-01  6.64D-01  5.59D-01
                    CP:  7.43D-01
 E= -344.672961820041     Delta-E=       -0.000016385508 Rises=F Damp=F
 DIIS: error= 6.69D-05 at cycle   7 NSaved=   7.
 NSaved= 7 IEnMin= 7 EnMin= -344.672961820041     IErMin= 7 ErrMin= 6.69D-05
 ErrMax= 6.69D-05  0.00D+00 EMaxC= 1.00D-01 BMatC= 8.45D-07 BMatP= 2.33D-05
 IDIUse=1 WtCom= 1.00D+00 WtEn= 0.00D+00
 Coeff-Com:  0.834D-03 0.196D-02 0.211D-01 0.495D-01 0.107D+00 0.342D+00
 Coeff-Com:  0.478D+00
 Coeff:      0.834D-03 0.196D-02 0.211D-01 0.495D-01 0.107D+00 0.342D+00
 Coeff:      0.478D+00
 Gap=     0.160 Goal=   None    Shift=    0.000
 RMSDP=1.08D-05 MaxDP=4.07D-04 DE=-1.64D-05 OVMax= 6.43D-04

 Cycle   8  Pass 1  IDiag  1:
 RMSU=  5.56D-06    CP:  1.04D+00  4.49D-01  7.28D-01  6.66D-01  5.51D-01
                    CP:  7.50D-01  8.20D-01
 E= -344.672962398859     Delta-E=       -0.000000578818 Rises=F Damp=F
 DIIS: error= 3.19D-05 at cycle   8 NSaved=   8.
 NSaved= 8 IEnMin= 8 EnMin= -344.672962398859     IErMin= 8 ErrMin= 3.19D-05
 ErrMax= 3.19D-05  0.00D+00 EMaxC= 1.00D-01 BMatC= 2.09D-07 BMatP= 8.45D-07
 IDIUse=1 WtCom= 1.00D+00 WtEn= 0.00D+00
 Coeff-Com:  0.192D-03 0.915D-04 0.369D-02 0.919D-02 0.224D-01 0.831D-01
 Coeff-Com:  0.332D+00 0.550D+00
 Coeff:      0.192D-03 0.915D-04 0.369D-02 0.919D-02 0.224D-01 0.831D-01
 Coeff:      0.332D+00 0.550D+00
 Gap=     0.160 Goal=   None    Shift=    0.000
 RMSDP=3.18D-06 MaxDP=8.89D-05 DE=-5.79D-07 OVMax= 3.30D-04

 Cycle   9  Pass 1  IDiag  1:
 RMSU=  1.99D-06    CP:  1.04D+00  4.49D-01  7.29D-01  6.66D-01  5.56D-01
                    CP:  7.57D-01  8.68D-01  6.79D-01
 E= -344.672962638874     Delta-E=       -0.000000240014 Rises=F Damp=F
 DIIS: error= 9.40D-06 at cycle   9 NSaved=   9.
 NSaved= 9 IEnMin= 9 EnMin= -344.672962638874     IErMin= 9 ErrMin= 9.40D-06
 ErrMax= 9.40D-06  0.00D+00 EMaxC= 1.00D-01 BMatC= 2.11D-08 BMatP= 2.09D-07
 IDIUse=1 WtCom= 1.00D+00 WtEn= 0.00D+00
 Coeff-Com:  0.689D-04-0.723D-04 0.934D-03 0.257D-02 0.709D-02 0.299D-01
 Coeff-Com:  0.176D+00 0.347D+00 0.436D+00
 Coeff:      0.689D-04-0.723D-04 0.934D-03 0.257D-02 0.709D-02 0.299D-01
 Coeff:      0.176D+00 0.347D+00 0.436D+00
 Gap=     0.160 Goal=   None    Shift=    0.000
 RMSDP=9.67D-07 MaxDP=2.83D-05 DE=-2.40D-07 OVMax= 1.08D-04

 Cycle  10  Pass 1  IDiag  1:
 RMSU=  6.48D-07    CP:  1.04D+00  4.49D-01  7.29D-01  6.66D-01  5.56D-01
                    CP:  7.55D-01  8.71D-01  7.48D-01  7.27D-01
 E= -344.672962634129     Delta-E=        0.000000004745 Rises=F Damp=F
 DIIS: error= 4.20D-06 at cycle  10 NSaved=  10.
 NSaved=10 IEnMin= 9 EnMin= -344.672962638874     IErMin=10 ErrMin= 4.20D-06
 ErrMax= 4.20D-06  0.00D+00 EMaxC= 1.00D-01 BMatC= 2.21D-09 BMatP= 2.11D-08
 IDIUse=1 WtCom= 1.00D+00 WtEn= 0.00D+00
 Coeff-Com:  0.128D-04-0.477D-04 0.196D-04 0.205D-03 0.781D-03 0.509D-02
 Coeff-Com:  0.539D-01 0.123D+00 0.271D+00 0.547D+00
 Coeff:      0.128D-04-0.477D-04 0.196D-04 0.205D-03 0.781D-03 0.509D-02
 Coeff:      0.539D-01 0.123D+00 0.271D+00 0.547D+00
 Gap=     0.160 Goal=   None    Shift=    0.000
 RMSDP=4.01D-07 MaxDP=1.67D-05 DE= 4.74D-09 OVMax= 3.14D-05

 Cycle  11  Pass 1  IDiag  1:
 RMSU=  1.51D-07    CP:  1.04D+00  4.49D-01  7.29D-01  6.66D-01  5.56D-01
                    CP:  7.56D-01  8.79D-01  7.39D-01  7.35D-01  6.58D-01
 E= -344.672962636205     Delta-E=       -0.000000002076 Rises=F Damp=F
 DIIS: error= 1.02D-06 at cycle  11 NSaved=  11.
 NSaved=11 IEnMin= 9 EnMin= -344.672962638874     IErMin=11 ErrMin= 1.02D-06
 ErrMax= 1.02D-06  0.00D+00 EMaxC= 1.00D-01 BMatC= 2.44D-10 BMatP= 2.21D-09
 IDIUse=1 WtCom= 1.00D+00 WtEn= 0.00D+00
 Coeff-Com:  0.328D-05-0.211D-04-0.666D-04-0.889D-04-0.139D-03 0.627D-03
 Coeff-Com:  0.194D-01 0.482D-01 0.132D+00 0.337D+00 0.463D+00
 Coeff:      0.328D-05-0.211D-04-0.666D-04-0.889D-04-0.139D-03 0.627D-03
 Coeff:      0.194D-01 0.482D-01 0.132D+00 0.337D+00 0.463D+00
 Gap=     0.160 Goal=   None    Shift=    0.000
 RMSDP=1.03D-07 MaxDP=3.18D-06 DE=-2.08D-09 OVMax= 5.67D-06

 Cycle  12  Pass 1  IDiag  1:
 RMSU=  5.21D-08    CP:  1.04D+00  4.49D-01  7.29D-01  6.66D-01  5.56D-01
                    CP:  7.56D-01  8.79D-01  7.39D-01  7.42D-01  6.85D-01
                    CP:  6.46D-01
 E= -344.672962636423     Delta-E=       -0.000000000218 Rises=F Damp=F
 DIIS: error= 1.14D-07 at cycle  12 NSaved=  12.
 NSaved=12 IEnMin= 9 EnMin= -344.672962638874     IErMin=12 ErrMin= 1.14D-07
 ErrMax= 1.14D-07  0.00D+00 EMaxC= 1.00D-01 BMatC= 4.79D-12 BMatP= 2.44D-10
 IDIUse=1 WtCom= 1.00D+00 WtEn= 0.00D+00
 Coeff-Com:  0.297D-06-0.366D-05-0.223D-04-0.358D-04-0.104D-03-0.966D-04
 Coeff-Com:  0.303D-02 0.847D-02 0.279D-01 0.820D-01 0.173D+00 0.706D+00
 Coeff:      0.297D-06-0.366D-05-0.223D-04-0.358D-04-0.104D-03-0.966D-04
 Coeff:      0.303D-02 0.847D-02 0.279D-01 0.820D-01 0.173D+00 0.706D+00
 Gap=     0.160 Goal=   None    Shift=    0.000
 RMSDP=2.42D-08 MaxDP=6.17D-07 DE=-2.18D-10 OVMax= 9.25D-07

 Cycle  13  Pass 1  IDiag  1:
 RMSU=  1.11D-08    CP:  1.04D+00  4.49D-01  7.29D-01  6.66D-01  5.56D-01
                    CP:  7.56D-01  8.79D-01  7.40D-01  7.45D-01  6.93D-01
                    CP:  6.58D-01  8.02D-01
 E= -344.672962636430     Delta-E=       -0.000000000007 Rises=F Damp=F
 DIIS: error= 5.29D-08 at cycle  13 NSaved=  13.
 NSaved=13 IEnMin= 9 EnMin= -344.672962638874     IErMin=13 ErrMin= 5.29D-08
 ErrMax= 5.29D-08  0.00D+00 EMaxC= 1.00D-01 BMatC= 4.90D-13 BMatP= 4.79D-12
 IDIUse=1 WtCom= 1.00D+00 WtEn= 0.00D+00
 Coeff-Com:  0.165D-07-0.103D-05-0.820D-05-0.134D-04-0.462D-04-0.711D-04
 Coeff-Com:  0.715D-03 0.228D-02 0.862D-02 0.266D-01 0.659D-01 0.353D+00
 Coeff-Com:  0.543D+00
 Coeff:      0.165D-07-0.103D-05-0.820D-05-0.134D-04-0.462D-04-0.711D-04
 Coeff:      0.715D-03 0.228D-02 0.862D-02 0.266D-01 0.659D-01 0.353D+00
 Coeff:      0.543D+00
 Gap=     0.160 Goal=   None    Shift=    0.000
 RMSDP=4.41D-09 MaxDP=1.03D-07 DE=-6.76D-12 OVMax= 4.16D-07

 Error on total polarization charges =  0.01089
 SCF Done:  E(RB-P86) =  -344.672962636     A.U. after   13 cycles
            NFock= 13  Conv=0.44D-08     -V/T= 2.0029
 KE= 3.436852272785D+02 PE=-1.388600233729D+03 EE= 4.092286821680D+02
 Leave Link  502 at Mon Feb 22 21:29:17 2021, MaxMem=   104857600 cpu:             213.3 elap:               6.9
 (Enter /sw/arch/RedHatEnterpriseServer7/EB_production/2019/software/Gaussian/g16.c01/l601.exe)
 Copying SCF densities to generalized density rwf, IOpCl= 0 IROHF=0.

 **********************************************************************

            Population analysis using the SCF Density.

 **********************************************************************

 Orbital symmetries:
       Occupied  (A) (A) (A) (A) (A) (A) (A) (A) (A) (A) (A) (A)
                 (A) (A) (A) (A) (A) (A) (A) (A) (A) (A) (A) (A)
                 (A) (A)
       Virtual   (A) (A) (A) (A) (A) (A) (A) (A) (A) (A) (A) (A)
                 (A) (A) (A) (A) (A) (A) (A) (A) (A) (A) (A) (A)
                 (A) (A) (A) (A) (A) (A) (A) (A) (A) (A) (A) (A)
                 (A) (A) (A) (A) (A) (A) (A) (A) (A) (A) (A) (A)
                 (A) (A) (A) (A) (A) (A) (A) (A) (A) (A) (A) (A)
                 (A) (A) (A) (A) (A) (A) (A) (A) (A) (A) (A) (A)
                 (A) (A) (A) (A) (A) (A) (A) (A) (A) (A) (A) (A)
                 (A) (A) (A) (A) (A) (A) (A) (A) (A) (A) (A) (A)
                 (A) (A) (A) (A) (A) (A) (A) (A) (A) (A) (A) (A)
                 (A) (A) (A) (A) (A) (A) (A) (A) (A) (A) (A) (A)
                 (A) (A) (A) (A) (A) (A) (A) (A) (A) (A) (A) (A)
                 (A) (A) (A) (A) (A) (A) (A) (A) (A) (A) (A)
 The electronic state is 1-A.
 Alpha  occ. eigenvalues --  -18.85308 -18.77504  -9.95273  -9.95233  -9.94506
 Alpha  occ. eigenvalues --   -9.89136  -9.89088  -1.04337  -0.94764  -0.74096
 Alpha  occ. eigenvalues --   -0.71229  -0.62397  -0.55660  -0.51761  -0.49048
 Alpha  occ. eigenvalues --   -0.47776  -0.42372  -0.41334  -0.40463  -0.36635
 Alpha  occ. eigenvalues --   -0.36192  -0.33406  -0.31078  -0.26419  -0.23821
 Alpha  occ. eigenvalues --   -0.20742
 Alpha virt. eigenvalues --   -0.04756   0.01032   0.03441   0.05569   0.07521
 Alpha virt. eigenvalues --    0.07979   0.09360   0.09865   0.10731   0.12491
 Alpha virt. eigenvalues --    0.14363   0.15944   0.16682   0.18602   0.20132
 Alpha virt. eigenvalues --    0.22300   0.24089   0.24577   0.26072   0.26466
 Alpha virt. eigenvalues --    0.28826   0.29882   0.30551   0.32081   0.33214
 Alpha virt. eigenvalues --    0.34918   0.36372   0.37191   0.38114   0.39324
 Alpha virt. eigenvalues --    0.42225   0.42876   0.43900   0.45273   0.46161
 Alpha virt. eigenvalues --    0.48999   0.50441   0.52015   0.53352   0.53976
 Alpha virt. eigenvalues --    0.55945   0.59480   0.61734   0.63071   0.65540
 Alpha virt. eigenvalues --    0.74397   0.78835   0.82860   0.86485   1.10149
 Alpha virt. eigenvalues --    1.13259   1.17373   1.18356   1.18822   1.20534
 Alpha virt. eigenvalues --    1.21512   1.24195   1.24809   1.25873   1.28031
 Alpha virt. eigenvalues --    1.30404   1.31253   1.31867   1.37032   1.38407
 Alpha virt. eigenvalues --    1.39321   1.39738   1.42745   1.43417   1.46651
 Alpha virt. eigenvalues --    1.48050   1.48699   1.52272   1.56192   1.60675
 Alpha virt. eigenvalues --    1.63107   1.69385   1.69872   1.70953   1.71714
 Alpha virt. eigenvalues --    1.73793   1.80399   1.83398   1.84210   1.86653
 Alpha virt. eigenvalues --    1.89891   1.92838   1.97392   1.99656   2.03823
 Alpha virt. eigenvalues --    2.08960   2.11673   2.17011   2.19328   2.21962
 Alpha virt. eigenvalues --    2.24343   2.30680   2.31343   2.32101   2.38105
 Alpha virt. eigenvalues --    2.40379   2.44382   2.46467   2.46731   2.48108
 Alpha virt. eigenvalues --    2.55211   2.56023   2.56920   2.58630   2.59418
 Alpha virt. eigenvalues --    2.60348   2.66161   2.79826   2.83855   2.84867
 Alpha virt. eigenvalues --    2.85764   2.86443   2.87771   2.88691   2.95739
 Alpha virt. eigenvalues --    2.98774   2.99979   3.01521   3.07617   3.08876
 Alpha virt. eigenvalues --    3.10227   3.12946   3.17307   3.23947   3.30789
 Alpha virt. eigenvalues --    3.47443   3.68588   3.81715   3.86358   4.00774
 Alpha virt. eigenvalues --    4.16276  21.34093  21.61128  21.74582  21.80193
 Alpha virt. eigenvalues --   21.93997  43.08115  43.18943
          Condensed to atoms (all electrons):
               1          2          3          4          5          6
     1  O    8.009530   0.388202  -0.190594   0.014765  -0.001967  -0.002505
     2  C    0.388202   5.247542   0.053008  -0.143498   0.027995  -0.015273
     3  C   -0.190594   0.053008   5.915816  -0.044473   0.120686  -0.199068
     4  C    0.014765  -0.143498  -0.044473   5.932069   0.132740  -0.004444
     5  C   -0.001967   0.027995   0.120686   0.132740   5.165751   0.497671
     6  C   -0.002505  -0.015273  -0.199068  -0.004444   0.497671   5.083034
     7  O    0.000861  -0.043219   0.364103  -0.149330  -0.084873   0.335940
     8  H    0.295118  -0.054836   0.031211   0.000361   0.000016   0.000130
     9  H   -0.067160   0.443056  -0.015663  -0.066837   0.010367  -0.002417
    10  H   -0.061908   0.382881  -0.057330   0.046979  -0.007019   0.001617
    11  H    0.003293  -0.009005  -0.078760   0.464362  -0.059319   0.016854
    12  H   -0.000021  -0.000834   0.014342  -0.044802   0.410282  -0.034779
    13  H   -0.000023  -0.001435   0.002214   0.007536  -0.047051   0.413402
               7          8          9         10         11         12
     1  O    0.000861   0.295118  -0.067160  -0.061908   0.003293  -0.000021
     2  C   -0.043219  -0.054836   0.443056   0.382881  -0.009005  -0.000834
     3  C    0.364103   0.031211  -0.015663  -0.057330  -0.078760   0.014342
     4  C   -0.149330   0.000361  -0.066837   0.046979   0.464362  -0.044802
     5  C   -0.084873   0.000016   0.010367  -0.007019  -0.059319   0.410282
     6  C    0.335940   0.000130  -0.002417   0.001617   0.016854  -0.034779
     7  O    7.688556  -0.000115   0.004801  -0.005528   0.003350   0.004368
     8  H   -0.000115   0.440025  -0.001702  -0.001494   0.000140  -0.000000
     9  H    0.004801  -0.001702   0.626342  -0.076577  -0.009566   0.000006
    10  H   -0.005528  -0.001494  -0.076577   0.634379   0.001437  -0.000013
    11  H    0.003350   0.000140  -0.009566   0.001437   0.505556  -0.001899
    12  H    0.004368  -0.000000   0.000006  -0.000013  -0.001899   0.493280
    13  H   -0.019201  -0.000000   0.000032  -0.000075  -0.000112   0.001787
              13
     1  O   -0.000023
     2  C   -0.001435
     3  C    0.002214
     4  C    0.007536
     5  C   -0.047051
     6  C    0.413402
     7  O   -0.019201
     8  H   -0.000000
     9  H    0.000032
    10  H   -0.000075
    11  H   -0.000112
    12  H    0.001787
    13  H    0.475746
 Mulliken charges:
               1
     1  O   -0.387591
     2  C   -0.274584
     3  C    0.084508
     4  C   -0.145427
     5  C   -0.165279
     6  C   -0.090161
     7  O   -0.099713
     8  H    0.291147
     9  H    0.155318
    10  H    0.142653
    11  H    0.163669
    12  H    0.158281
    13  H    0.167180
 Sum of Mulliken charges =  -0.00000
 Mulliken charges with hydrogens summed into heavy atoms:
               1
     1  O   -0.096444
     2  C    0.023387
     3  C    0.084508
     4  C    0.018242
     5  C   -0.006998
     6  C    0.077019
     7  O   -0.099713
 Electronic spatial extent (au):  <R**2>=            730.4337
 Charge=             -0.0000 electrons
 Dipole moment (field-independent basis, Debye):
    X=              0.5800    Y=              0.8241    Z=              1.8236  Tot=              2.0835
 Quadrupole moment (field-independent basis, Debye-Ang):
   XX=            -28.5322   YY=            -39.5369   ZZ=            -44.5399
   XY=              0.7164   XZ=              5.1548   YZ=              0.3380
 Traceless Quadrupole moment (field-independent basis, Debye-Ang):
   XX=              9.0042   YY=             -2.0006   ZZ=             -7.0035
   XY=              0.7164   XZ=              5.1548   YZ=              0.3380
 Octapole moment (field-independent basis, Debye-Ang**2):
  XXX=             30.6207  YYY=              1.9050  ZZZ=              0.7707  XYY=             -1.4714
  XXY=             -3.7324  XXZ=              1.9779  XZZ=              3.7211  YZZ=             -2.7292
  YYZ=              0.0673  XYZ=              0.0607
 Hexadecapole moment (field-independent basis, Debye-Ang**3):
 XXXX=           -480.0689 YYYY=           -177.7724 ZZZZ=            -91.3870 XXXY=              8.6736
 XXXZ=              9.9460 YYYX=              3.3348 YYYZ=              1.1373 ZZZX=             -1.8568
 ZZZY=             -0.6264 XXYY=           -129.4617 XXZZ=           -136.7827 YYZZ=            -47.8017
 XXYZ=              0.3521 YYXZ=              3.9579 ZZXY=              1.9901
 N-N= 2.910133616460D+02 E-N=-1.388600232793D+03  KE= 3.436852272785D+02
 No NMR shielding tensors so no spin-rotation constants.
 Leave Link  601 at Mon Feb 22 21:29:17 2021, MaxMem=   104857600 cpu:               7.4 elap:               0.3
 (Enter /sw/arch/RedHatEnterpriseServer7/EB_production/2019/software/Gaussian/g16.c01/l701.exe)
 ... and contract with generalized density number  0.
 Compute integral first derivatives.
 R6Disp: Adding Grimme-D3 dispersion energy 1st derivatives to the gradient.
 PrsmSu:  requested number of processors reduced to:  30 ShMem   1 Linda.
 D1PCM: PCM CHGder 1st derivatives, ID1Alg=3 FixD1E=F DoIter=F DoCFld=F I1PDM=0.
 GePol: Maximum number of non-zero 1st derivatives   =     214
 CoulSu:  requested number of processors reduced to:  29 ShMem   1 Linda.
 CoulSu:  requested number of processors reduced to:  30 ShMem   1 Linda.
 Leave Link  701 at Mon Feb 22 21:29:18 2021, MaxMem=   104857600 cpu:              18.8 elap:               0.7
 (Enter /sw/arch/RedHatEnterpriseServer7/EB_production/2019/software/Gaussian/g16.c01/l702.exe)
 L702 exits ... SP integral derivatives will be done elsewhere.
 Leave Link  702 at Mon Feb 22 21:29:18 2021, MaxMem=   104857600 cpu:               0.9 elap:               0.1
 (Enter /sw/arch/RedHatEnterpriseServer7/EB_production/2019/software/Gaussian/g16.c01/l703.exe)
 Integral derivatives from FoFJK, PRISM(SPDF).
 Compute integral first derivatives, UseDBF=F ICtDFT=           0.
 Calling FoFJK, ICntrl=      2527 FMM=F ISym2X=0 I1Cent= 0 IOpClX= 0 NMat=1 NMatS=1 NMatT=0.
 FoFJK:  IHMeth= 1 ICntrl=    2527 DoSepK=F KAlg= 0 I1Cent=           0 FoldK=F
 IRaf=         0 NMat=       1 IRICut=       1 DoRegI=T DoRafI=F ISym2E= 0 IDoP0=0 IntGTp=1.
 FoFCou: FMM=F IPFlag=           0 FMFlag=      100000 FMFlg1=         800
         NFxFlg=           0 DoJE=F BraDBF=F KetDBF=F FulRan=T
         wScrn=  0.000000 ICntrl=      2527 IOpCl=  0 I1Cent=           0 NGrid=           0
         NMat0=    1 NMatS0=      1 NMatT0=    0 NMatD0=    1 NMtDS0=    0 NMtDT0=    0
 Symmetry not used in FoFCou.
 Leave Link  703 at Mon Feb 22 21:29:19 2021, MaxMem=   104857600 cpu:              22.9 elap:               0.8
 (Enter /sw/arch/RedHatEnterpriseServer7/EB_production/2019/software/Gaussian/g16.c01/l716.exe)
 Dipole        = 2.28174108D-01 3.24236776D-01 7.17446844D-01
 ***** Axes restored to original set *****
 -------------------------------------------------------------------
 Center     Atomic                   Forces (Hartrees/Bohr)
 Number     Number              X              Y              Z
 -------------------------------------------------------------------
      1        8           0.021738704    0.001568662    0.009103331
      2        6           0.001280272   -0.009397362   -0.013145471
      3        6          -0.024503430    0.024872533    0.027526456
      4        6           0.023821598   -0.034152330   -0.028120831
      5        6           0.027079039   -0.036847328   -0.025036124
      6        6          -0.014736660    0.020560060    0.059572486
      7        8           0.010542723   -0.014609582   -0.015188469
      8        1           0.003397151    0.004198394   -0.001571620
      9        1          -0.009135218    0.000903343    0.003254812
     10        1          -0.002098117   -0.010260328   -0.003718328
     11        1          -0.010324973    0.012813162    0.050062048
     12        1          -0.030642010    0.044236344   -0.007604083
     13        1           0.003580920   -0.003885569   -0.055134207
 -------------------------------------------------------------------
 Cartesian Forces:  Max     0.059572486 RMS     0.023660098
 Leave Link  716 at Mon Feb 22 21:29:19 2021, MaxMem=   104857600 cpu:               0.8 elap:               0.1
 (Enter /sw/arch/RedHatEnterpriseServer7/EB_production/2019/software/Gaussian/g16.c01/l103.exe)

 GradGradGradGradGradGradGradGradGradGradGradGradGradGradGradGradGradGrad
 Berny optimization.
 FormGI is forming the generalized inverse of G from B-inverse, IUseBI=4.
 Internal  Forces:  Max     0.054261160 RMS     0.014820600
 Search for a local minimum.
 Step number   1 out of a maximum of   68
 All quantities printed in internal units (Hartrees-Bohrs-Radians)
 RMS Force = .14821D-01 SwitMx=.10000D-02 MixMth= 1
 Mixed Optimization -- RFO/linear search
 Second derivative matrix not updated -- first step.
 ITU=  0
     Eigenvalues ---    0.01190   0.01430   0.01680   0.02229   0.02246
     Eigenvalues ---    0.02260   0.02274   0.02277   0.06690   0.07653
     Eigenvalues ---    0.11431   0.13920   0.16000   0.16000   0.16000
     Eigenvalues ---    0.16000   0.22063   0.22192   0.24050   0.24998
     Eigenvalues ---    0.34636   0.34693   0.35990   0.42167   0.42489
     Eigenvalues ---    0.44042   0.44170   0.44317   0.44525   0.47473
     Eigenvalues ---    0.51647   0.51915   0.52765
 RFO step:  Lambda=-3.07131053D-02 EMin= 1.19021745D-02
 Linear search not attempted -- first point.
 Iteration  1 RMS(Cart)=  0.06258648 RMS(Int)=  0.00220173
 Iteration  2 RMS(Cart)=  0.00317173 RMS(Int)=  0.00015157
 Iteration  3 RMS(Cart)=  0.00001118 RMS(Int)=  0.00015124
 Iteration  4 RMS(Cart)=  0.00000000 RMS(Int)=  0.00015124
 ITry= 1 IFail=0 DXMaxC= 1.75D-01 DCOld= 1.00D+10 DXMaxT= 3.00D-01 DXLimC= 3.00D+00 Rises=F
 Variable       Old X    -DE/DX   Delta X   Delta X   Delta X     New X
                                 (Linear)    (Quad)   (Total)
    R1        2.68306   0.02662   0.00000   0.05842   0.05842   2.74148
    R2        1.84939  -0.00254   0.00000  -0.00464  -0.00464   1.84475
    R3        2.77398   0.01110   0.00000   0.02843   0.02843   2.80241
    R4        2.06270   0.00754   0.00000   0.02000   0.02000   2.08270
    R5        2.06176   0.01071   0.00000   0.02836   0.02836   2.09012
    R6        2.63099  -0.00909   0.00000  -0.01758  -0.01757   2.61342
    R7        2.56206   0.01313   0.00000   0.02248   0.02249   2.58455
    R8        2.61617   0.03581   0.00000   0.07073   0.07073   2.68690
    R9        1.93105   0.05258   0.00000   0.11161   0.11161   2.04266
   R10        2.62307  -0.00804   0.00000  -0.01582  -0.01584   2.60724
   R11        1.92777   0.05426   0.00000   0.11450   0.11450   2.04227
   R12        2.56022   0.00827   0.00000   0.01359   0.01359   2.57381
   R13        1.92952   0.05251   0.00000   0.11116   0.11116   2.04068
    A1        1.83356   0.00926   0.00000   0.04858   0.04858   1.88213
    A2        1.90272   0.00337   0.00000   0.01592   0.01593   1.91865
    A3        1.91057   0.00352   0.00000   0.02499   0.02514   1.93571
    A4        1.91142   0.00059   0.00000   0.01400   0.01385   1.92527
    A5        1.92885  -0.00719   0.00000  -0.04628  -0.04644   1.88240
    A6        1.91705  -0.00038   0.00000  -0.00153  -0.00189   1.91516
    A7        1.89317   0.00013   0.00000  -0.00670  -0.00731   1.88586
    A8        2.20013   0.01916   0.00000   0.06810   0.06807   2.26820
    A9        2.17936  -0.01983   0.00000  -0.07078  -0.07079   2.10857
   A10        1.90363   0.00067   0.00000   0.00259   0.00260   1.90623
   A11        1.86913  -0.00256   0.00000  -0.00668  -0.00668   1.86245
   A12        2.20919  -0.00203   0.00000  -0.01401  -0.01401   2.19518
   A13        2.20487   0.00459   0.00000   0.02069   0.02069   2.22556
   A14        1.85889  -0.00138   0.00000  -0.00299  -0.00301   1.85587
   A15        2.20999   0.00363   0.00000   0.01690   0.01691   2.22690
   A16        2.21431  -0.00225   0.00000  -0.01391  -0.01390   2.20041
   A17        1.91430   0.00085   0.00000   0.00205   0.00203   1.91633
   A18        2.18479   0.01657   0.00000   0.08808   0.08809   2.27288
   A19        2.18410  -0.01742   0.00000  -0.09014  -0.09013   2.09397
   A20        1.87883   0.00242   0.00000   0.00505   0.00506   1.88389
    D1        3.13690  -0.00199   0.00000  -0.01194  -0.01200   3.12490
    D2        1.02510   0.00257   0.00000   0.01958   0.01964   1.04473
    D3       -1.04841  -0.00004   0.00000   0.00439   0.00439  -1.04401
    D4       -1.56365   0.00011   0.00000   0.00273   0.00280  -1.56084
    D5        1.56405  -0.00032   0.00000  -0.00697  -0.00683   1.55722
    D6        0.53694   0.00214   0.00000   0.01506   0.01472   0.55166
    D7       -2.61854   0.00171   0.00000   0.00535   0.00509  -2.61346
    D8        2.62513  -0.00246   0.00000  -0.02328  -0.02312   2.60201
    D9       -0.53036  -0.00289   0.00000  -0.03298  -0.03275  -0.56311
   D10        3.13289  -0.00091   0.00000  -0.01555  -0.01581   3.11709
   D11       -0.00932  -0.00069   0.00000  -0.01190  -0.01217  -0.02149
   D12        0.00336  -0.00037   0.00000  -0.00653  -0.00647  -0.00311
   D13       -3.13885  -0.00015   0.00000  -0.00287  -0.00283   3.14150
   D14       -3.13292   0.00052   0.00000   0.01328   0.01283  -3.12010
   D15       -0.00322   0.00032   0.00000   0.00556   0.00562   0.00240
   D16       -0.00217   0.00024   0.00000   0.00480   0.00478   0.00262
   D17        3.14029   0.00006   0.00000   0.00098   0.00095   3.14124
   D18        3.14005   0.00002   0.00000   0.00118   0.00107   3.14112
   D19       -0.00068  -0.00016   0.00000  -0.00265  -0.00276  -0.00344
   D20        0.00024  -0.00006   0.00000  -0.00150  -0.00145  -0.00121
   D21       -3.14116  -0.00022   0.00000  -0.00421  -0.00428   3.13775
   D22        3.14097   0.00013   0.00000   0.00235   0.00233  -3.13989
   D23       -0.00043  -0.00003   0.00000  -0.00036  -0.00050  -0.00093
   D24        0.00184  -0.00017   0.00000  -0.00254  -0.00254  -0.00070
   D25       -3.13995  -0.00000   0.00000   0.00020  -0.00002  -3.13997
         Item               Value     Threshold  Converged?
 Maximum Force            0.054261     0.000450     NO 
 RMS     Force            0.014821     0.000300     NO 
 Maximum Displacement     0.175224     0.001800     NO 
 RMS     Displacement     0.063281     0.001200     NO 
 Predicted change in Energy=-1.666209D-02
 Lowest energy point so far.  Saving SCF results.
 GradGradGradGradGradGradGradGradGradGradGradGradGradGradGradGradGradGrad

 Leave Link  103 at Mon Feb 22 21:29:19 2021, MaxMem=   104857600 cpu:               5.0 elap:               0.2
 (Enter /sw/arch/RedHatEnterpriseServer7/EB_production/2019/software/Gaussian/g16.c01/l202.exe)
                          Input orientation:                          
 ---------------------------------------------------------------------
 Center     Atomic      Atomic             Coordinates (Angstroms)
 Number     Number       Type             X           Y           Z
 ---------------------------------------------------------------------
      1          8           0        1.767771    0.568002    0.042464
      2          6           0        0.428417    0.104122   -0.266653
      3          6           0       -0.256145    1.084336   -1.144010
      4          6           0       -1.029651    2.182482   -0.814850
      5          6           0       -1.412902    2.794523   -2.039664
      6          6           0       -0.854292    2.032987   -3.045429
      7          8           0       -0.154239    0.997120   -2.505104
      8          1           0        2.183595   -0.089987    0.631619
      9          1           0       -0.171780   -0.004637    0.651276
     10          1           0        0.469461   -0.880899   -0.768035
     11          1           0       -1.281355    2.500671    0.187051
     12          1           0       -2.021639    3.677436   -2.173326
     13          1           0       -0.903939    2.149444   -4.117861
 ---------------------------------------------------------------------
                    Distance matrix (angstroms):
                    1          2          3          4          5
     1  O    0.000000
     2  C    1.450726   0.000000
     3  C    2.402198   1.482970   0.000000
     4  C    3.341721   2.597318   1.382961   0.000000
     5  C    4.405603   3.711103   2.250561   1.421846   0.000000
     6  C    4.307723   3.617659   2.207512   2.242450   1.379691
     7  O    3.219995   2.479434   1.367687   2.242407   2.243106
     8  H    0.976198   1.981217   3.237935   4.193010   5.328315
     9  H    2.111972   1.102116   2.101436   2.769288   4.076376
    10  H    2.107566   1.106045   2.128382   3.410840   4.320771
    11  H    3.612933   2.978693   2.197450   1.080927   2.249870
    12  H    5.379399   4.733576   3.301610   2.250419   1.080722
    13  H    5.191079   4.559640   3.224575   3.305568   2.234743
                    6          7          8          9         10
     6  C    0.000000
     7  O    1.362000   0.000000
     8  H    5.220771   4.060332   0.000000
     9  H    4.275905   3.311580   2.357002   0.000000
    10  H    3.928050   2.633128   2.350070   1.787028   0.000000
    11  H    3.293939   3.283101   4.349141   2.779070   3.925883
    12  H    2.197152   3.283497   6.304378   4.995800   5.381341
    13  H    1.079879   2.119172   6.091427   5.284013   4.721286
                   11         12         13
    11  H    0.000000
    12  H    2.739374   0.000000
    13  H    4.335674   2.713896   0.000000
 Stoichiometry    C5H6O2
 Framework group  C1[X(C5H6O2)]
 Deg. of freedom    33
 Full point group                 C1      NOp   1
 RotChk:  IX=0 Diff= 3.57D-02
 Largest Abelian subgroup         C1      NOp   1
 Largest concise Abelian subgroup C1      NOp   1
                         Standard orientation:                         
 ---------------------------------------------------------------------
 Center     Atomic      Atomic             Coordinates (Angstroms)
 Number     Number       Type             X           Y           Z
 ---------------------------------------------------------------------
      1          8           0        2.373809   -0.024798   -0.697210
      2          6           0        1.630242    0.011797    0.547931
      3          6           0        0.175293    0.067291    0.266431
      4          6           0       -0.652490    1.159557    0.081197
      5          6           0       -1.950670    0.647252   -0.190683
      6          6           0       -1.841133   -0.727549   -0.152339
      7          8           0       -0.555122   -1.080311    0.124754
      8          1           0        3.324668   -0.045329   -0.477191
      9          1           0        1.894567    0.904467    1.137789
     10          1           0        1.858714   -0.882088    1.157936
     11          1           0       -0.351750    2.196473    0.133793
     12          1           0       -2.853112    1.208501   -0.387045
     13          1           0       -2.590037   -1.491239   -0.300862
 ---------------------------------------------------------------------
 Rotational constants (GHZ):           6.9504314           1.8823647           1.6378247
 Leave Link  202 at Mon Feb 22 21:29:19 2021, MaxMem=   104857600 cpu:               0.5 elap:               0.0
 (Enter /sw/arch/RedHatEnterpriseServer7/EB_production/2019/software/Gaussian/g16.c01/l301.exe)
 Standard basis: TZVP (5D, 7F)
 Ernie: Thresh=  0.10000D-02 Tol=  0.10000D-05 Strict=F.
 There are   176 symmetry adapted cartesian basis functions of A   symmetry.
 There are   169 symmetry adapted basis functions of A   symmetry.
   169 basis functions,   293 primitive gaussians,   176 cartesian basis functions
    26 alpha electrons       26 beta electrons
       nuclear repulsion energy       287.7435551716 Hartrees.
 IExCor=  404 DFT=T Ex=B Corr=P86 ExCW=0 ScaHFX=  0.000000
 ScaDFX=  1.000000  1.000000  1.000000  1.000000 ScalE2=  1.000000  1.000000
 IRadAn=      5 IRanWt=     -1 IRanGd=            0 ICorTp=0 IEmpDi=131
 NAtoms=   13 NActive=   13 NUniq=   13 SFac= 1.00D+00 NAtFMM=   60 NAOKFM=F Big=F
 Integral buffers will be    131072 words long.
 Raffenetti 2 integral format.
 Two-electron integral symmetry is turned on.
 R6Disp:  Grimme-D3 Dispersion energy=       -0.0076700108 Hartrees.
 Nuclear repulsion after empirical dispersion term =      287.7358851608 Hartrees.
 ------------------------------------------------------------------------------
 Polarizable Continuum Model (PCM)
 =================================
 Model                : PCM.
 Atomic radii         : UFF (Universal Force Field).
 Polarization charges : Total charges.
 Charge compensation  : None.
 Solution method      : On-the-fly selection.
 Cavity type          : Scaled VdW (van der Waals Surface) (Alpha=1.100).
 Cavity algorithm     : GePol (No added spheres)
                        Default sphere list used, NSphG=   13.
                        Lebedev-Laikov grids with approx.  5.0 points / Ang**2.
                        Smoothing algorithm: York/Karplus (Gamma=1.0000).
                        Polarization charges: spherical gaussians, with
                                              point-specific exponents (IZeta= 3).
                        Self-potential: point-specific (ISelfS= 7).
                        Self-field    : sphere-specific E.n sum rule (ISelfD= 2).
 1st derivatives      : Analytical E(r).r(x)/FMM algorithm (CHGder, D1EAlg=3).
                        Cavity 1st derivative terms included.
 Solvent              : Water, Eps=  78.355300 Eps(inf)=   1.777849
 ------------------------------------------------------------------------------
 Spheres list:
 ISph  on   Nord     Re0    Alpha      Xe            Ye            Ze
    1   O      1    1.7500  1.100      2.373809     -0.024798     -0.697210
    2   C      2    1.9255  1.100      1.630242      0.011797      0.547931
    3   C      3    1.9255  1.100      0.175293      0.067291      0.266431
    4   C      4    1.9255  1.100     -0.652490      1.159557      0.081197
    5   C      5    1.9255  1.100     -1.950670      0.647252     -0.190683
    6   C      6    1.9255  1.100     -1.841133     -0.727549     -0.152339
    7   O      7    1.7500  1.100     -0.555122     -1.080311      0.124754
    8   H      8    1.4430  1.100      3.324668     -0.045329     -0.477191
    9   H      9    1.4430  1.100      1.894567      0.904467      1.137789
   10   H     10    1.4430  1.100      1.858714     -0.882088      1.157936
   11   H     11    1.4430  1.100     -0.351750      2.196473      0.133793
   12   H     12    1.4430  1.100     -2.853112      1.208501     -0.387045
   13   H     13    1.4430  1.100     -2.590037     -1.491239     -0.300862
 ------------------------------------------------------------------------------
 GePol: Number of generator spheres                  =      13
 GePol: Total number of spheres                      =      13
 GePol: Number of exposed spheres                    =      13 (100.00%)
 GePol: Number of points                             =    1203
 GePol: Average weight of points                     =       0.13
 GePol: Minimum weight of points                     =   0.65D-08
 GePol: Maximum weight of points                     =    0.20577
 GePol: Number of points with low weight             =      73
 GePol: Fraction of low-weight points (<1% of avg)   =       6.07%
 GePol: Cavity surface area                          =    159.545 Ang**2
 GePol: Cavity volume                                =    147.933 Ang**3
 Leave Link  301 at Mon Feb 22 21:29:19 2021, MaxMem=   104857600 cpu:               1.6 elap:               0.1
 (Enter /sw/arch/RedHatEnterpriseServer7/EB_production/2019/software/Gaussian/g16.c01/l302.exe)
 NPDir=0 NMtPBC=     1 NCelOv=     1 NCel=       1 NClECP=     1 NCelD=      1
         NCelK=      1 NCelE2=     1 NClLst=     1 CellRange=     0.0.
 One-electron integrals computed using PRISM.
 One-electron integral symmetry used in STVInt
 PrsmSu:  requested number of processors reduced to:  29 ShMem   1 Linda.
 NBasis=   169 RedAO= T EigKep=  4.76D-05  NBF=   169
 NBsUse=   169 1.00D-06 EigRej= -1.00D+00 NBFU=   169
 Precomputing XC quadrature grid using
 IXCGrd= 4 IRadAn=           5 IRanWt=          -1 IRanGd=           0 AccXCQ= 0.00D+00.
 Generated NRdTot=       0 NPtTot=           0 NUsed=           0 NTot=          32
 NSgBfM=   175   175   175   175   175 MxSgAt=    13 MxSgA2=    13.
 Leave Link  302 at Mon Feb 22 21:29:20 2021, MaxMem=   104857600 cpu:               4.9 elap:               0.2
 (Enter /sw/arch/RedHatEnterpriseServer7/EB_production/2019/software/Gaussian/g16.c01/l303.exe)
 DipDrv:  MaxL=1.
 Leave Link  303 at Mon Feb 22 21:29:20 2021, MaxMem=   104857600 cpu:               2.0 elap:               0.1
 (Enter /sw/arch/RedHatEnterpriseServer7/EB_production/2019/software/Gaussian/g16.c01/l401.exe)
 Initial guess from the checkpoint file:  "XPFVYQJUAUNWIW-UHFFFAOYSA-N.chk"
 B after Tr=     0.000000   -0.000000    0.000000
         Rot=    0.999912    0.011738    0.001223   -0.006092 Ang=   1.52 deg.
 Guess basis will be translated and rotated to current coordinates.
 JPrj=2 DoOrth=T DoCkMO=T.
 Generating alternative initial guess.
 ExpMin= 9.52D-02 ExpMax= 2.70D+04 ExpMxC= 9.22D+02 IAcc=3 IRadAn=         5 AccDes= 0.00D+00
 Harris functional with IExCor=  404 and IRadAn=       5 diagonalized for initial guess.
 HarFok:  IExCor=  404 AccDes= 0.00D+00 IRadAn=         5 IDoV= 1 UseB2=F ITyADJ=14
 ICtDFT=  3500011 ScaDFX=  1.000000  1.000000  1.000000  1.000000
 FoFCou: FMM=F IPFlag=           0 FMFlag=      100000 FMFlg1=           0
         NFxFlg=           0 DoJE=T BraDBF=F KetDBF=T FulRan=T
         wScrn=  0.000000 ICntrl=       500 IOpCl=  0 I1Cent=   200000004 NGrid=           0
         NMat0=    1 NMatS0=      1 NMatT0=    0 NMatD0=    1 NMtDS0=    0 NMtDT0=    0
 Petite list used in FoFCou.
 Harris En= -344.787022665199    
 Leave Link  401 at Mon Feb 22 21:29:22 2021, MaxMem=   104857600 cpu:              10.1 elap:               0.4
 (Enter /sw/arch/RedHatEnterpriseServer7/EB_production/2019/software/Gaussian/g16.c01/l502.exe)
 Integral symmetry usage will be decided dynamically.
 Closed shell SCF:
 Using DIIS extrapolation, IDIIS=  1040.
 NGot=   104857600 LenX=   104787836 LenY=   104756419
 Requested convergence on RMS density matrix=1.00D-08 within 128 cycles.
 Requested convergence on MAX density matrix=1.00D-06.
 Requested convergence on             energy=1.00D-06.
 No special actions if energy rises.
 Fock matrices will be formed incrementally for  20 cycles.

 Cycle   1  Pass 1  IDiag  1:
 FoFJK:  IHMeth= 1 ICntrl=     500 DoSepK=F KAlg= 0 I1Cent=           0 FoldK=F
 IRaf= 950000000 NMat=       1 IRICut=       1 DoRegI=T DoRafI=F ISym2E= 0 IDoP0=0 IntGTp=1.
 FoFCou: FMM=F IPFlag=           0 FMFlag=      100000 FMFlg1=           0
         NFxFlg=           0 DoJE=T BraDBF=F KetDBF=F FulRan=T
         wScrn=  0.000000 ICntrl=       500 IOpCl=  0 I1Cent=           0 NGrid=           0
         NMat0=    1 NMatS0=      1 NMatT0=    0 NMatD0=    1 NMtDS0=    0 NMtDT0=    0
 Symmetry not used in FoFCou.
 Inv3:  Mode=1 IEnd=     4341627.
 Iteration    1 A*A^-1 deviation from unit magnitude is 3.33D-15 for    255.
 Iteration    1 A*A^-1 deviation from orthogonality  is 1.94D-15 for    947    198.
 Iteration    1 A^-1*A deviation from unit magnitude is 2.78D-15 for    749.
 Iteration    1 A^-1*A deviation from orthogonality  is 1.65D-15 for    837    550.
 E= -344.684434480604    
 DIIS: error= 3.05D-03 at cycle   1 NSaved=   1.
 NSaved= 1 IEnMin= 1 EnMin= -344.684434480604     IErMin= 1 ErrMin= 3.05D-03
 ErrMax= 3.05D-03  0.00D+00 EMaxC= 1.00D-01 BMatC= 4.84D-03 BMatP= 4.84D-03
 IDIUse=3 WtCom= 9.70D-01 WtEn= 3.05D-02
 Coeff-Com:  0.100D+01
 Coeff-En:   0.100D+01
 Coeff:      0.100D+01
 Gap=     0.641 Goal=   None    Shift=    0.000
 GapD=    0.641 DampG=2.000 DampE=1.000 DampFc=2.0000 IDamp=-1.
 RMSDP=1.37D-03 MaxDP=4.43D-02              OVMax= 1.98D-02

 Cycle   2  Pass 1  IDiag  1:
 RMSU=  1.31D-03    CP:  9.76D-01
 E= -344.689534655293     Delta-E=       -0.005100174689 Rises=F Damp=F
 DIIS: error= 1.18D-03 at cycle   2 NSaved=   2.
 NSaved= 2 IEnMin= 2 EnMin= -344.689534655293     IErMin= 2 ErrMin= 1.18D-03
 ErrMax= 1.18D-03  0.00D+00 EMaxC= 1.00D-01 BMatC= 5.11D-04 BMatP= 4.84D-03
 IDIUse=3 WtCom= 9.88D-01 WtEn= 1.18D-02
 Coeff-Com:  0.155D+00 0.845D+00
 Coeff-En:   0.000D+00 0.100D+01
 Coeff:      0.153D+00 0.847D+00
 Gap=     0.164 Goal=   None    Shift=    0.000
 RMSDP=3.57D-04 MaxDP=1.34D-02 DE=-5.10D-03 OVMax= 2.61D-02

 Cycle   3  Pass 1  IDiag  1:
 RMSU=  2.96D-04    CP:  9.83D-01  8.77D-01
 E= -344.688953444097     Delta-E=        0.000581211196 Rises=F Damp=F
 DIIS: error= 2.12D-03 at cycle   3 NSaved=   3.
 NSaved= 3 IEnMin= 2 EnMin= -344.689534655293     IErMin= 2 ErrMin= 1.18D-03
 ErrMax= 2.12D-03  0.00D+00 EMaxC= 1.00D-01 BMatC= 1.09D-03 BMatP= 5.11D-04
 IDIUse=3 WtCom= 1.79D-01 WtEn= 8.21D-01
 Coeff-Com:  0.377D-01 0.587D+00 0.375D+00
 Coeff-En:   0.000D+00 0.649D+00 0.351D+00
 Coeff:      0.674D-02 0.638D+00 0.356D+00
 Gap=     0.164 Goal=   None    Shift=    0.000
 RMSDP=2.01D-04 MaxDP=6.48D-03 DE= 5.81D-04 OVMax= 1.77D-02

 Cycle   4  Pass 1  IDiag  1:
 RMSU=  8.21D-05    CP:  9.79D-01  9.32D-01  4.61D-01
 E= -344.690021515195     Delta-E=       -0.001068071097 Rises=F Damp=F
 DIIS: error= 4.05D-04 at cycle   4 NSaved=   4.
 NSaved= 4 IEnMin= 4 EnMin= -344.690021515195     IErMin= 4 ErrMin= 4.05D-04
 ErrMax= 4.05D-04  0.00D+00 EMaxC= 1.00D-01 BMatC= 4.13D-05 BMatP= 5.11D-04
 IDIUse=3 WtCom= 9.96D-01 WtEn= 4.05D-03
 Coeff-Com:  0.777D-02 0.310D+00 0.183D+00 0.499D+00
 Coeff-En:   0.000D+00 0.000D+00 0.000D+00 0.100D+01
 Coeff:      0.774D-02 0.309D+00 0.182D+00 0.501D+00
 Gap=     0.164 Goal=   None    Shift=    0.000
 RMSDP=4.69D-05 MaxDP=1.08D-03 DE=-1.07D-03 OVMax= 1.72D-03

 Cycle   5  Pass 1  IDiag  1:
 RMSU=  2.67D-05    CP:  9.79D-01  9.45D-01  4.52D-01  5.91D-01
 E= -344.690051741138     Delta-E=       -0.000030225943 Rises=F Damp=F
 DIIS: error= 2.21D-04 at cycle   5 NSaved=   5.
 NSaved= 5 IEnMin= 5 EnMin= -344.690051741138     IErMin= 5 ErrMin= 2.21D-04
 ErrMax= 2.21D-04  0.00D+00 EMaxC= 1.00D-01 BMatC= 7.16D-06 BMatP= 4.13D-05
 IDIUse=3 WtCom= 9.98D-01 WtEn= 2.21D-03
 Coeff-Com:  0.685D-03 0.125D+00 0.702D-01 0.324D+00 0.480D+00
 Coeff-En:   0.000D+00 0.000D+00 0.000D+00 0.109D+00 0.891D+00
 Coeff:      0.683D-03 0.125D+00 0.700D-01 0.324D+00 0.481D+00
 Gap=     0.164 Goal=   None    Shift=    0.000
 RMSDP=1.44D-05 MaxDP=3.66D-04 DE=-3.02D-05 OVMax= 7.85D-04

 Cycle   6  Pass 1  IDiag  1:
 RMSU=  9.99D-06    CP:  9.79D-01  9.42D-01  4.51D-01  6.06D-01  6.67D-01
 E= -344.690057124747     Delta-E=       -0.000005383609 Rises=F Damp=F
 DIIS: error= 8.05D-05 at cycle   6 NSaved=   6.
 NSaved= 6 IEnMin= 6 EnMin= -344.690057124747     IErMin= 6 ErrMin= 8.05D-05
 ErrMax= 8.05D-05  0.00D+00 EMaxC= 1.00D-01 BMatC= 7.90D-07 BMatP= 7.16D-06
 IDIUse=1 WtCom= 1.00D+00 WtEn= 0.00D+00
 Coeff-Com: -0.179D-03 0.577D-01 0.323D-01 0.168D+00 0.318D+00 0.424D+00
 Coeff:     -0.179D-03 0.577D-01 0.323D-01 0.168D+00 0.318D+00 0.424D+00
 Gap=     0.164 Goal=   None    Shift=    0.000
 RMSDP=6.76D-06 MaxDP=2.36D-04 DE=-5.38D-06 OVMax= 1.93D-04

 Cycle   7  Pass 1  IDiag  1:
 RMSU=  2.94D-06    CP:  9.79D-01  9.44D-01  4.44D-01  6.32D-01  6.64D-01
                    CP:  5.75D-01
 E= -344.690057571060     Delta-E=       -0.000000446314 Rises=F Damp=F
 DIIS: error= 1.28D-05 at cycle   7 NSaved=   7.
 NSaved= 7 IEnMin= 7 EnMin= -344.690057571060     IErMin= 7 ErrMin= 1.28D-05
 ErrMax= 1.28D-05  0.00D+00 EMaxC= 1.00D-01 BMatC= 2.76D-08 BMatP= 7.90D-07
 IDIUse=1 WtCom= 1.00D+00 WtEn= 0.00D+00
 Coeff-Com: -0.168D-03 0.164D-01 0.997D-02 0.503D-01 0.116D+00 0.206D+00
 Coeff-Com:  0.602D+00
 Coeff:     -0.168D-03 0.164D-01 0.997D-02 0.503D-01 0.116D+00 0.206D+00
 Coeff:      0.602D+00
 Gap=     0.164 Goal=   None    Shift=    0.000
 RMSDP=1.25D-06 MaxDP=3.14D-05 DE=-4.46D-07 OVMax= 1.24D-04

 Cycle   8  Pass 1  IDiag  1:
 RMSU=  9.61D-07    CP:  9.79D-01  9.44D-01  4.45D-01  6.28D-01  6.77D-01
                    CP:  5.95D-01  8.59D-01
 E= -344.690057625993     Delta-E=       -0.000000054933 Rises=F Damp=F
 DIIS: error= 8.45D-06 at cycle   8 NSaved=   8.
 NSaved= 8 IEnMin= 8 EnMin= -344.690057625993     IErMin= 8 ErrMin= 8.45D-06
 ErrMax= 8.45D-06  0.00D+00 EMaxC= 1.00D-01 BMatC= 1.03D-08 BMatP= 2.76D-08
 IDIUse=1 WtCom= 1.00D+00 WtEn= 0.00D+00
 Coeff-Com: -0.904D-04 0.620D-02 0.412D-02 0.194D-01 0.532D-01 0.106D+00
 Coeff-Com:  0.432D+00 0.379D+00
 Coeff:     -0.904D-04 0.620D-02 0.412D-02 0.194D-01 0.532D-01 0.106D+00
 Coeff:      0.432D+00 0.379D+00
 Gap=     0.164 Goal=   None    Shift=    0.000
 RMSDP=5.96D-07 MaxDP=1.94D-05 DE=-5.49D-08 OVMax= 5.59D-05

 Cycle   9  Pass 1  IDiag  1:
 RMSU=  3.30D-07    CP:  9.79D-01  9.44D-01  4.46D-01  6.28D-01  6.79D-01
                    CP:  6.06D-01  8.63D-01  5.72D-01
 E= -344.690057636258     Delta-E=       -0.000000010265 Rises=F Damp=F
 DIIS: error= 1.04D-06 at cycle   9 NSaved=   9.
 NSaved= 9 IEnMin= 9 EnMin= -344.690057636258     IErMin= 9 ErrMin= 1.04D-06
 ErrMax= 1.04D-06  0.00D+00 EMaxC= 1.00D-01 BMatC= 2.34D-10 BMatP= 1.03D-08
 IDIUse=1 WtCom= 1.00D+00 WtEn= 0.00D+00
 Coeff-Com: -0.223D-04 0.114D-02 0.865D-03 0.363D-02 0.124D-01 0.269D-01
 Coeff-Com:  0.133D+00 0.177D+00 0.645D+00
 Coeff:     -0.223D-04 0.114D-02 0.865D-03 0.363D-02 0.124D-01 0.269D-01
 Coeff:      0.133D+00 0.177D+00 0.645D+00
 Gap=     0.164 Goal=   None    Shift=    0.000
 RMSDP=1.49D-07 MaxDP=5.37D-06 DE=-1.03D-08 OVMax= 8.56D-06

 Cycle  10  Pass 1  IDiag  1:
 RMSU=  9.58D-08    CP:  9.79D-01  9.44D-01  4.46D-01  6.27D-01  6.81D-01
                    CP:  6.07D-01  8.74D-01  6.07D-01  8.41D-01
 E= -344.690057636443     Delta-E=       -0.000000000185 Rises=F Damp=F
 DIIS: error= 4.29D-07 at cycle  10 NSaved=  10.
 NSaved=10 IEnMin=10 EnMin= -344.690057636443     IErMin=10 ErrMin= 4.29D-07
 ErrMax= 4.29D-07  0.00D+00 EMaxC= 1.00D-01 BMatC= 5.64D-11 BMatP= 2.34D-10
 IDIUse=1 WtCom= 1.00D+00 WtEn= 0.00D+00
 Coeff-Com: -0.475D-05 0.928D-04 0.113D-03 0.305D-03 0.209D-02 0.547D-02
 Coeff-Com:  0.341D-01 0.676D-01 0.387D+00 0.503D+00
 Coeff:     -0.475D-05 0.928D-04 0.113D-03 0.305D-03 0.209D-02 0.547D-02
 Coeff:      0.341D-01 0.676D-01 0.387D+00 0.503D+00
 Gap=     0.164 Goal=   None    Shift=    0.000
 RMSDP=5.34D-08 MaxDP=1.70D-06 DE=-1.85D-10 OVMax= 2.17D-06

 Cycle  11  Pass 1  IDiag  1:
 RMSU=  2.29D-08    CP:  9.79D-01  9.44D-01  4.46D-01  6.28D-01  6.81D-01
                    CP:  6.08D-01  8.76D-01  6.08D-01  8.80D-01  6.42D-01
 E= -344.690057636496     Delta-E=       -0.000000000053 Rises=F Damp=F
 DIIS: error= 9.76D-08 at cycle  11 NSaved=  11.
 NSaved=11 IEnMin=11 EnMin= -344.690057636496     IErMin=11 ErrMin= 9.76D-08
 ErrMax= 9.76D-08  0.00D+00 EMaxC= 1.00D-01 BMatC= 1.21D-12 BMatP= 5.64D-11
 IDIUse=1 WtCom= 1.00D+00 WtEn= 0.00D+00
 Coeff-Com: -0.868D-06-0.262D-04-0.745D-05-0.578D-04 0.132D-03 0.772D-03
 Coeff-Com:  0.636D-02 0.190D-01 0.121D+00 0.194D+00 0.659D+00
 Coeff:     -0.868D-06-0.262D-04-0.745D-05-0.578D-04 0.132D-03 0.772D-03
 Coeff:      0.636D-02 0.190D-01 0.121D+00 0.194D+00 0.659D+00
 Gap=     0.164 Goal=   None    Shift=    0.000
 RMSDP=1.70D-08 MaxDP=8.56D-07 DE=-5.31D-11 OVMax= 5.30D-07

 Cycle  12  Pass 1  IDiag  1:
 RMSU=  6.87D-09    CP:  9.79D-01  9.44D-01  4.46D-01  6.28D-01  6.81D-01
                    CP:  6.08D-01  8.77D-01  6.13D-01  8.79D-01  6.59D-01
                    CP:  7.41D-01
 E= -344.690057636496     Delta-E=        0.000000000000 Rises=F Damp=F
 DIIS: error= 4.21D-08 at cycle  12 NSaved=  12.
 NSaved=12 IEnMin=11 EnMin= -344.690057636496     IErMin=12 ErrMin= 4.21D-08
 ErrMax= 4.21D-08  0.00D+00 EMaxC= 1.00D-01 BMatC= 4.56D-13 BMatP= 1.21D-12
 IDIUse=1 WtCom= 1.00D+00 WtEn= 0.00D+00
 Coeff-Com: -0.598D-07-0.297D-04-0.188D-04-0.786D-04-0.158D-03-0.868D-04
 Coeff-Com:  0.569D-03 0.595D-02 0.429D-01 0.791D-01 0.428D+00 0.444D+00
 Coeff:     -0.598D-07-0.297D-04-0.188D-04-0.786D-04-0.158D-03-0.868D-04
 Coeff:      0.569D-03 0.595D-02 0.429D-01 0.791D-01 0.428D+00 0.444D+00
 Gap=     0.164 Goal=   None    Shift=    0.000
 RMSDP=6.26D-09 MaxDP=3.18D-07 DE= 4.55D-13 OVMax= 2.24D-07

 Error on total polarization charges =  0.01113
 SCF Done:  E(RB-P86) =  -344.690057636     A.U. after   12 cycles
            NFock= 12  Conv=0.63D-08     -V/T= 2.0043
 KE= 3.432079384011D+02 PE=-1.381775924615D+03 EE= 4.061420434170D+02
 Leave Link  502 at Mon Feb 22 21:29:28 2021, MaxMem=   104857600 cpu:             194.8 elap:               6.2
 (Enter /sw/arch/RedHatEnterpriseServer7/EB_production/2019/software/Gaussian/g16.c01/l701.exe)
 ... and contract with generalized density number  0.
 Compute integral first derivatives.
 R6Disp: Adding Grimme-D3 dispersion energy 1st derivatives to the gradient.
 PrsmSu:  requested number of processors reduced to:  30 ShMem   1 Linda.
 D1PCM: PCM CHGder 1st derivatives, ID1Alg=3 FixD1E=F DoIter=F DoCFld=F I1PDM=0.
 GePol: Maximum number of non-zero 1st derivatives   =     201
 CoulSu:  requested number of processors reduced to:  29 ShMem   1 Linda.
 CoulSu:  requested number of processors reduced to:  30 ShMem   1 Linda.
 Leave Link  701 at Mon Feb 22 21:29:28 2021, MaxMem=   104857600 cpu:              15.0 elap:               0.5
 (Enter /sw/arch/RedHatEnterpriseServer7/EB_production/2019/software/Gaussian/g16.c01/l702.exe)
 L702 exits ... SP integral derivatives will be done elsewhere.
 Leave Link  702 at Mon Feb 22 21:29:28 2021, MaxMem=   104857600 cpu:               0.5 elap:               0.0
 (Enter /sw/arch/RedHatEnterpriseServer7/EB_production/2019/software/Gaussian/g16.c01/l703.exe)
 Integral derivatives from FoFJK, PRISM(SPDF).
 Compute integral first derivatives, UseDBF=F ICtDFT=           0.
 Calling FoFJK, ICntrl=      2527 FMM=F ISym2X=0 I1Cent= 0 IOpClX= 0 NMat=1 NMatS=1 NMatT=0.
 FoFJK:  IHMeth= 1 ICntrl=    2527 DoSepK=F KAlg= 0 I1Cent=           0 FoldK=F
 IRaf=         0 NMat=       1 IRICut=       1 DoRegI=T DoRafI=F ISym2E= 0 IDoP0=0 IntGTp=1.
 FoFCou: FMM=F IPFlag=           0 FMFlag=      100000 FMFlg1=         800
         NFxFlg=           0 DoJE=F BraDBF=F KetDBF=F FulRan=T
         wScrn=  0.000000 ICntrl=      2527 IOpCl=  0 I1Cent=           0 NGrid=           0
         NMat0=    1 NMatS0=      1 NMatT0=    0 NMatD0=    1 NMtDS0=    0 NMtDT0=    0
 Symmetry not used in FoFCou.
 Leave Link  703 at Mon Feb 22 21:29:29 2021, MaxMem=   104857600 cpu:              21.6 elap:               0.7
 (Enter /sw/arch/RedHatEnterpriseServer7/EB_production/2019/software/Gaussian/g16.c01/l716.exe)
 Dipole        = 1.95504712D-01 3.00403890D-01 7.16063573D-01
 ***** Axes restored to original set *****
 -------------------------------------------------------------------
 Center     Atomic                   Forces (Hartrees/Bohr)
 Number     Number              X              Y              Z
 -------------------------------------------------------------------
      1        8           0.002218892    0.001839286   -0.000040453
      2        6           0.001547187   -0.005215221   -0.005045075
      3        6          -0.009386769    0.011438965    0.015221451
      4        6           0.005739531   -0.007925870   -0.002316835
      5        6           0.003308883   -0.004024932   -0.008236062
      6        6          -0.010214643    0.014791187    0.011347364
[...]
     10          1           0        0.317310   -0.869910   -0.652336
     11          1           0       -1.479356    2.466934    0.182956
     12          1           0       -2.103362    3.632628   -2.234159
     13          1           0       -0.702868    2.143108   -4.094252
 ---------------------------------------------------------------------
                    Distance matrix (angstroms):
                    1          2          3          4          5
     1  O    0.000000
     2  C    1.452676   0.000000
     3  C    2.396427   1.482572   0.000000
     4  C    3.458621   2.619468   1.370528   0.000000
     5  C    4.443362   3.725728   2.254804   1.435306   0.000000
     6  C    4.207514   3.604939   2.216285   2.242087   1.367723
     7  O    3.046189   2.447987   1.384587   2.250100   2.251951
     8  H    0.974790   1.971200   3.220818   4.320513   5.362863
     9  H    2.116395   1.104163   2.105066   2.781497   4.114422
    10  H    2.108198   1.105069   2.127221   3.370739   4.294190
    11  H    3.847719   3.027695   2.190503   1.086587   2.265539
    12  H    5.453877   4.757780   3.308996   2.266485   1.086317
    13  H    5.003526   4.509189   3.217929   3.319760   2.259121
                    6          7          8          9         10
     6  C    0.000000
     7  O    1.374087   0.000000
     8  H    5.089420   3.847984   0.000000
     9  H    4.311497   3.338268   2.411751   0.000000
    10  H    3.926337   2.648776   2.280271   1.790598   0.000000
    11  H    3.297275   3.297286   4.625030   2.784103   3.880754
    12  H    2.193396   3.298928   6.384871   5.038946   5.351136
    13  H    1.085266   2.088466   5.851053   5.304185   4.686771
                   11         12         13
    11  H    0.000000
    12  H    2.755116   0.000000
    13  H    4.359163   2.764055   0.000000
 Stoichiometry    C5H6O2
 Framework group  C1[X(C5H6O2)]
 Deg. of freedom    33
 Full point group                 C1      NOp   1
 Largest Abelian subgroup         C1      NOp   1
 Largest concise Abelian subgroup C1      NOp   1
                         Standard orientation:                         
 ---------------------------------------------------------------------
 Center     Atomic      Atomic             Coordinates (Angstroms)
 Number     Number       Type             X           Y           Z
 ---------------------------------------------------------------------
      1          8           0        2.350928   -0.202111   -0.669438
      2          6           0        1.628678    0.231969    0.513861
      3          6           0        0.171669    0.203283    0.241246
      4          6           0       -0.753697    1.178799   -0.024108
      5          6           0       -2.011390    0.517716   -0.227287
      6          6           0       -1.768529   -0.819786   -0.076375
      7          8           0       -0.442775   -1.037157    0.212142
      8          1           0        3.284244   -0.309002   -0.409224
      9          1           0        1.904821    1.264961    0.789267
     10          1           0        1.861274   -0.428788    1.368540
     11          1           0       -0.555640    2.246294   -0.067674
     12          1           0       -2.969794    0.976142   -0.453990
     13          1           0       -2.390517   -1.707351   -0.132582
 ---------------------------------------------------------------------
 Rotational constants (GHZ):           6.9170225           1.9075289           1.6437247
 Standard basis: TZVP (5D, 7F)
 There are   176 symmetry adapted cartesian basis functions of A   symmetry.
 There are   169 symmetry adapted basis functions of A   symmetry.
   169 basis functions,   293 primitive gaussians,   176 cartesian basis functions
    26 alpha electrons       26 beta electrons
       nuclear repulsion energy       287.7517657573 Hartrees.
 NAtoms=   13 NActive=   13 NUniq=   13 SFac= 1.00D+00 NAtFMM=   60 NAOKFM=F Big=F
 Integral buffers will be    131072 words long.
 Raffenetti 2 integral format.
 Two-electron integral symmetry is turned on.
 Warning! Using old PCM defaults because the COSMOthermo output has been requested.
 These settings can be overridden by following keywords.
 ------------------------------------------------------------------------------
 Polarizable Continuum Model (PCM)
 =================================
 Model                : C-PCM.
 Atomic radii         : Klamt.
 XCosmo               : -1.000 (infinite dielectric limit)
 Polarization charges : Electronic and nuclear charges.
 Charge compensation  : Type 3 (Electronic density weighted correction).
 Solution method      : On-the-fly selection.
 Cavity type          : VdW (van der Waals Surface) (Alpha=1.000).
 Cavity algorithm     : GePol (No added spheres)
                        Default sphere list used, NSphG=   13.
                        Tesserae with average area of 0.200 Ang**2.
                        Smoothing algorithm: None.
                        Polarization charges: point-like.
                        Self-potential: constant (ISelfS= 1).
                        Self-field    : global E.n sum rule (ISelfD= 3).
 Solvent              : Water, Eps=  78.355300 Eps(inf)=   1.777849
 ------------------------------------------------------------------------------
 Spheres list:
 ISph  on   Nord     Re0    Alpha      Xe            Ye            Ze
    1   O      1    1.7200  1.000      2.350928     -0.202111     -0.669438
    2   C      2    2.0000  1.000      1.628678      0.231969      0.513861
    3   C      3    2.0000  1.000      0.171669      0.203283      0.241246
    4   C      4    2.0000  1.000     -0.753697      1.178799     -0.024108
    5   C      5    2.0000  1.000     -2.011390      0.517716     -0.227287
    6   C      6    2.0000  1.000     -1.768529     -0.819786     -0.076375
    7   O      7    1.7200  1.000     -0.442775     -1.037157      0.212142
    8   H      8    1.3000  1.000      3.284244     -0.309002     -0.409224
    9   H      9    1.3000  1.000      1.904821      1.264961      0.789267
   10   H     10    1.3000  1.000      1.861274     -0.428788      1.368540
   11   H     11    1.3000  1.000     -0.555640      2.246294     -0.067674
   12   H     12    1.3000  1.000     -2.969794      0.976142     -0.453990
   13   H     13    1.3000  1.000     -2.390517     -1.707351     -0.132582
 ------------------------------------------------------------------------------
 One-electron integrals computed using PRISM.
 PrsmSu:  requested number of processors reduced to:  29 ShMem   1 Linda.
 NBasis=   169 RedAO= T EigKep=  4.26D-05  NBF=   169
 NBsUse=   169 1.00D-06 EigRej= -1.00D+00 NBFU=   169
 Initial guess from the checkpoint file:  "XPFVYQJUAUNWIW-UHFFFAOYSA-N.chk"
 B after Tr=     0.000000    0.000000   -0.000000
         Rot=    1.000000    0.000000    0.000000    0.000000 Ang=   0.00 deg.
 Requested convergence on RMS density matrix=1.00D-08 within 128 cycles.
 Requested convergence on MAX density matrix=1.00D-06.
 Requested convergence on             energy=1.00D-06.
 No special actions if energy rises.
 Inv3:  Mode=1 IEnd=     2834352.
 Iteration    1 A*A^-1 deviation from unit magnitude is 2.78D-15 for    589.
 Iteration    1 A*A^-1 deviation from orthogonality  is 1.30D-15 for    907     53.
 Iteration    1 A^-1*A deviation from unit magnitude is 2.78D-15 for    589.
 Iteration    1 A^-1*A deviation from orthogonality  is 2.11D-15 for    772    592.
 Error on nuclear    polarization charges =  0.01910
 Error on electronic polarization charges = -0.04385
 SCF Done:  E(RB-P86) =  -344.689678643     A.U. after   11 cycles
            NFock= 11  Conv=0.30D-08     -V/T= 2.0044
 --------------------------------------------------------------------
 Variational C-PCM results
 =========================
 <psi(f)|   H    |psi(f)>                     (a.u.) =    -344.672833
 <psi(f)|H+V(f)/2|psi(f)>                     (a.u.) =    -344.689679
 Total free energy in solution:
 - with all non electrostatic terms           (a.u.) =    -344.680997
 --------------------------------------------------------------------
 (Polarized solute)-Solvent               (kcal/mol) =     -10.57
 --------------------------------------------------------------------
 Cavitation energy                        (kcal/mol) =      17.20
 Dispersion energy                        (kcal/mol) =     -12.86
 Repulsion energy                         (kcal/mol) =       1.11
 Total non electrostatic                  (kcal/mol) =       5.45
 --------------------------------------------------------------------
 Partition over spheres:
 Sphere  on Atom  Surface  Charge   GEl     GCav    GDR
    1      O1      16.44   0.197   -3.74    2.04   -1.46
    2      C2      12.86  -0.032   -0.42    1.51   -0.66
    3      C3       6.93   0.019   -0.22    0.81   -0.31
    4      C4      15.32   0.038   -0.37    1.80   -1.10
    5      C5      15.54   0.043   -0.34    1.83   -1.17
    6      C6      17.78   0.011   -0.26    2.09   -1.44
    7      O7      10.89   0.087   -1.09    1.35   -0.90
    8      H8       8.55  -0.126   -2.06    1.21   -0.94
    9      H9       6.58  -0.040   -0.40    0.93   -0.74
   10      H10      6.59  -0.041   -0.33    0.93   -0.81
   11      H11      6.37  -0.048   -0.42    0.90   -0.74
   12      H12      6.37  -0.049   -0.40    0.90   -0.73
   13      H13      6.36  -0.060   -0.53    0.90   -0.72
 --------------------------------------------------------------------
 - cavitation energy not included in the total energy.
 - dispersion energy not included in the total energy.
 - repulsion  energy not included in the total energy.
 After PCM corrections, the energy is  -344.689678643     a.u.
 --------------------------------------------------------------------
 Writing COSMO formatted file "XPFVYQJUAUNWIW-UHFFFAOYSA-N.cosmo"
 Recomputed dielectric energy= -0.016953 old= -0.016845 diff=-1.07D-04

 **********************************************************************

            Population analysis using the SCF Density.

 **********************************************************************

 Orbital symmetries:
       Occupied  (A) (A) (A) (A) (A) (A) (A) (A) (A) (A) (A) (A)
                 (A) (A) (A) (A) (A) (A) (A) (A) (A) (A) (A) (A)
                 (A) (A)
       Virtual   (A) (A) (A) (A) (A) (A) (A) (A) (A) (A) (A) (A)
                 (A) (A) (A) (A) (A) (A) (A) (A) (A) (A) (A) (A)
                 (A) (A) (A) (A) (A) (A) (A) (A) (A) (A) (A) (A)
                 (A) (A) (A) (A) (A) (A) (A) (A) (A) (A) (A) (A)
                 (A) (A) (A) (A) (A) (A) (A) (A) (A) (A) (A) (A)
                 (A) (A) (A) (A) (A) (A) (A) (A) (A) (A) (A) (A)
                 (A) (A) (A) (A) (A) (A) (A) (A) (A) (A) (A) (A)
                 (A) (A) (A) (A) (A) (A) (A) (A) (A) (A) (A) (A)
                 (A) (A) (A) (A) (A) (A) (A) (A) (A) (A) (A) (A)
                 (A) (A) (A) (A) (A) (A) (A) (A) (A) (A) (A) (A)
                 (A) (A) (A) (A) (A) (A) (A) (A) (A) (A) (A) (A)
                 (A) (A) (A) (A) (A) (A) (A) (A) (A) (A) (A)
 The electronic state is 1-A.
 Alpha  occ. eigenvalues --  -18.84222 -18.77489  -9.95499  -9.95375  -9.95017
 Alpha  occ. eigenvalues --   -9.90424  -9.90304  -1.02579  -0.93588  -0.73483
 Alpha  occ. eigenvalues --   -0.70777  -0.61733  -0.54966  -0.50266  -0.47521
 Alpha  occ. eigenvalues --   -0.46977  -0.41211  -0.40247  -0.38717  -0.36590
 Alpha  occ. eigenvalues --   -0.35577  -0.33604  -0.31121  -0.25965  -0.24047
 Alpha  occ. eigenvalues --   -0.21215
 Alpha virt. eigenvalues --   -0.04536   0.00979   0.03758   0.05799   0.07092
 Alpha virt. eigenvalues --    0.07947   0.09207   0.09793   0.10861   0.11569
 Alpha virt. eigenvalues --    0.13530   0.14764   0.16004   0.18404   0.19889
 Alpha virt. eigenvalues --    0.22091   0.23908   0.24475   0.25391   0.26494
 Alpha virt. eigenvalues --    0.28595   0.29611   0.30163   0.31395   0.32996
 Alpha virt. eigenvalues --    0.34825   0.35168   0.36028   0.37262   0.39797
 Alpha virt. eigenvalues --    0.40245   0.41421   0.42987   0.44801   0.46410
 Alpha virt. eigenvalues --    0.48446   0.49190   0.50776   0.51479   0.54730
 Alpha virt. eigenvalues --    0.56678   0.58683   0.59515   0.61956   0.66021
 Alpha virt. eigenvalues --    0.72826   0.79826   0.82547   0.85549   1.08793
 Alpha virt. eigenvalues --    1.12986   1.16154   1.18270   1.20400   1.20500
 Alpha virt. eigenvalues --    1.21788   1.24325   1.25145   1.27277   1.30417
 Alpha virt. eigenvalues --    1.30935   1.31928   1.32767   1.35568   1.37142
 Alpha virt. eigenvalues --    1.38824   1.39209   1.42762   1.44299   1.46462
 Alpha virt. eigenvalues --    1.47730   1.49521   1.52946   1.56553   1.58236
 Alpha virt. eigenvalues --    1.61046   1.66683   1.67752   1.69236   1.71244
 Alpha virt. eigenvalues --    1.72340   1.77815   1.80637   1.81626   1.86316
 Alpha virt. eigenvalues --    1.88894   1.90109   1.91900   1.97661   2.02381
 Alpha virt. eigenvalues --    2.06112   2.11661   2.14131   2.17359   2.21495
 Alpha virt. eigenvalues --    2.25049   2.28239   2.28736   2.29256   2.32663
 Alpha virt. eigenvalues --    2.38058   2.40696   2.42194   2.44929   2.48335
 Alpha virt. eigenvalues --    2.50622   2.53976   2.55899   2.57314   2.58612
 Alpha virt. eigenvalues --    2.60868   2.62871   2.77336   2.82365   2.82841
 Alpha virt. eigenvalues --    2.84333   2.84809   2.85590   2.86834   2.91686
 Alpha virt. eigenvalues --    2.93814   2.94198   3.01055   3.04275   3.05886
 Alpha virt. eigenvalues --    3.07792   3.09284   3.18508   3.23132   3.29310
 Alpha virt. eigenvalues --    3.38589   3.58375   3.80023   3.82245   3.99655
 Alpha virt. eigenvalues --    4.16589  21.25129  21.53575  21.67142  21.76906
 Alpha virt. eigenvalues --   21.86577  43.04606  43.18454
          Condensed to atoms (all electrons):
               1          2          3          4          5          6
     1  O    8.040129   0.362308  -0.160991   0.002379  -0.000455  -0.001977
     2  C    0.362308   5.329214   0.005257  -0.199569   0.039723  -0.018349
     3  C   -0.160991   0.005257   5.811183   0.143362   0.047533  -0.141907
     4  C    0.002379  -0.199569   0.143362   5.802076   0.183025  -0.036793
     5  C   -0.000455   0.039723   0.047533   0.183025   5.205801   0.509324
     6  C   -0.001977  -0.018349  -0.141907  -0.036793   0.509324   5.036791
     7  O    0.004232  -0.036362   0.317223  -0.138956  -0.093481   0.327505
     8  H    0.301755  -0.044425   0.022824  -0.000657   0.000119   0.000041
     9  H   -0.053324   0.481486  -0.077085  -0.048366   0.005858  -0.001840
    10  H   -0.057827   0.362375  -0.015168   0.031169  -0.004369   0.001503
    11  H    0.000786  -0.015631  -0.054323   0.439400  -0.048907   0.013930
    12  H   -0.000009  -0.000847   0.008129  -0.033282   0.395078  -0.028269
    13  H   -0.000042  -0.001559  -0.002134   0.015675  -0.053205   0.413132
               7          8          9         10         11         12
     1  O    0.004232   0.301755  -0.053324  -0.057827   0.000786  -0.000009
     2  C   -0.036362  -0.044425   0.481486   0.362375  -0.015631  -0.000847
     3  C    0.317223   0.022824  -0.077085  -0.015168  -0.054323   0.008129
     4  C   -0.138956  -0.000657  -0.048366   0.031169   0.439400  -0.033282
     5  C   -0.093481   0.000119   0.005858  -0.004369  -0.048907   0.395078
     6  C    0.327505   0.000041  -0.001840   0.001503   0.013930  -0.028269
     7  O    7.768538  -0.000003   0.005936  -0.007769   0.003855   0.004264
     8  H   -0.000003   0.406315   0.001545  -0.003527   0.000008   0.000000
     9  H    0.005936   0.001545   0.594057  -0.064290  -0.004947  -0.000022
    10  H   -0.007769  -0.003527  -0.064290   0.598012   0.000717   0.000005
    11  H    0.003855   0.000008  -0.004947   0.000717   0.493937  -0.000497
    12  H    0.004264   0.000000  -0.000022   0.000005  -0.000497   0.483872
    13  H   -0.026679  -0.000001   0.000017  -0.000038   0.000002   0.000132
              13
     1  O   -0.000042
     2  C   -0.001559
     3  C   -0.002134
     4  C    0.015675
     5  C   -0.053205
     6  C    0.413132
     7  O   -0.026679
     8  H   -0.000001
     9  H    0.000017
    10  H   -0.000038
    11  H    0.000002
    12  H    0.000132
    13  H    0.482619
 Mulliken charges:
               1
     1  O   -0.436964
     2  C   -0.263621
     3  C    0.096099
     4  C   -0.159461
     5  C   -0.186044
     6  C   -0.073091
     7  O   -0.128303
     8  H    0.316007
     9  H    0.160974
    10  H    0.159208
    11  H    0.171669
    12  H    0.171445
    13  H    0.172081
 Sum of Mulliken charges =  -0.00000
 Mulliken charges with hydrogens summed into heavy atoms:
               1
     1  O   -0.120957
     2  C    0.056561
     3  C    0.096099
     4  C    0.012208
     5  C   -0.014599
     6  C    0.098991
     7  O   -0.128303
 Electronic spatial extent (au):  <R**2>=            741.5293
 Charge=             -0.0000 electrons
 Dipole moment (field-independent basis, Debye):
    X=              0.4820    Y=              1.1643    Z=              1.8814  Tot=              2.2644
 Quadrupole moment (field-independent basis, Debye-Ang):
   XX=            -28.1263   YY=            -38.5337   ZZ=            -44.8228
   XY=              1.3268   XZ=              5.3537   YZ=             -0.1587
 Traceless Quadrupole moment (field-independent basis, Debye-Ang):
   XX=              9.0346   YY=             -1.3728   ZZ=             -7.6618
   XY=              1.3268   XZ=              5.3537   YZ=             -0.1587
 Octapole moment (field-independent basis, Debye-Ang**2):
  XXX=             33.5874  YYY=              0.7285  ZZZ=              2.4050  XYY=             -2.8766
  XXY=             -6.6848  XXZ=              2.9606  XZZ=              4.6532  YZZ=             -2.8577
  YYZ=             -0.6312  XYZ=              0.7796
 Hexadecapole moment (field-independent basis, Debye-Ang**3):
 XXXX=           -484.4619 YYYY=           -177.0856 ZZZZ=            -90.0724 XXXY=            -10.0440
 XXXZ=             12.1414 YYYX=              9.7720 YYYZ=             -0.1009 ZZZX=             -0.8584
 ZZZY=             -1.3986 XXYY=           -128.5735 XXZZ=           -139.4668 YYZZ=            -50.4105
 XXYZ=             -1.3454 YYXZ=              3.0995 ZZXY=             -0.3339
 N-N= 2.877517657573D+02 E-N=-1.381933102902D+03  KE= 3.431720897247D+02
 Unable to Open any file for archive entry.
 1\1\GINC-TCN1681\SP\RBP86\TZVP\C5H6O2\ELENAA\22-Feb-2021\0\\# BP86/TZV
 P SCRF=COSMORS geom=CHECKPOINT guess=CHECKPOINT\\COSMO-file for #XPFVY
 QJUAUNWIW-UHFFFAOYSA-N\\0,1\O,0,1.8174438421,0.5025887168,-0.095252562
 8\C,0,0.4158778958,0.1391917994,-0.2128194755\C,0,-0.2805006181,1.1284
 372174,-1.0698311107\C,0,-1.128340033,2.1714021151,-0.8019908046\C,0,-
 1.4524834006,2.7803762348,-2.0606353552\C,0,-0.7763425947,2.0699592415
 ,-3.0139496944\O,0,-0.0548070207,1.0545560807,-2.4339008638\H,0,2.2671
 482617,-0.2399679361,0.3481326249\H,0,-0.0764196664,0.1362968323,0.775
 5176561\H,0,0.3173096753,-0.869910015,-0.6523359347\H,0,-1.479356384,2
 .4669343431,0.1829557457\H,0,-2.1033616538,3.6326278494,-2.234158603\H
 ,0,-0.7028683037,2.1431075207,-4.0942516219\\Version=ES64L-G16RevC.01\
 State=1-A\HF=-344.6896786\RMSD=3.043e-09\Dipole=-0.5744176,-0.5107754,
 0.4503859\Quadrupole=-3.8311071,1.5161356,2.3149715,-4.8690121,1.28672
 15,-4.4276359\PG=C01 [X(C5H6O2)]\\@
 The archive entry for this job was punched.


 NEVER LISTEN TO CRITICISM
 OR YOU'LL BE DOIN' EVERYBODY ELSE'S THING BUT BUT YOUR OWN.

                                               -- ANDY CAPP
 Job cpu time:       0 days  0 hours  3 minutes 13.3 seconds.
 Elapsed time:       0 days  0 hours  0 minutes  6.5 seconds.
 File lengths (MBytes):  RWF=     29 Int=      0 D2E=      0 Chk=      6 Scr=      1
 Normal termination of Gaussian 16 at Mon Feb 22 21:31:07 2021.
