 Entering Gaussian System, Link 0=g16
 Input=XWBDWHCCBGMXKG-UHFFFAOYSA-N.gjf
 Output=XWBDWHCCBGMXKG-UHFFFAOYSA-N.log
 Initial command:
 /sw/arch/RedHatEnterpriseServer7/EB_production/2020/software/Gaussian/g16.c01/l1.exe "/scratch-local/elenaa.10684710/Gau-27597.inp" -scrdir="/scratch-local/elenaa.10684710/"
 Entering Link 1 = /sw/arch/RedHatEnterpriseServer7/EB_production/2020/software/Gaussian/g16.c01/l1.exe PID=     27599.
  
 Copyright (c) 1988-2019, Gaussian, Inc.  All Rights Reserved.
  
 This is part of the Gaussian(R) 16 program.  It is based on
 the Gaussian(R) 09 system (copyright 2009, Gaussian, Inc.),
 the Gaussian(R) 03 system (copyright 2003, Gaussian, Inc.),
 the Gaussian(R) 98 system (copyright 1998, Gaussian, Inc.),
 the Gaussian(R) 94 system (copyright 1995, Gaussian, Inc.),
 the Gaussian 92(TM) system (copyright 1992, Gaussian, Inc.),
 the Gaussian 90(TM) system (copyright 1990, Gaussian, Inc.),
 the Gaussian 88(TM) system (copyright 1988, Gaussian, Inc.),
 the Gaussian 86(TM) system (copyright 1986, Carnegie Mellon
 University), and the Gaussian 82(TM) system (copyright 1983,
 Carnegie Mellon University). Gaussian is a federally registered
 trademark of Gaussian, Inc.
  
 This software contains proprietary and confidential information,
 including trade secrets, belonging to Gaussian, Inc.
  
 This software is provided under written license and may be
 used, copied, transmitted, or stored only in accord with that
 written license.
  
 The following legend is applicable only to US Government
 contracts under FAR:
  
                    RESTRICTED RIGHTS LEGEND
  
 Use, reproduction and disclosure by the US Government is
 subject to restrictions as set forth in subparagraphs (a)
 and (c) of the Commercial Computer Software - Restricted
 Rights clause in FAR 52.227-19.
  
 Gaussian, Inc.
 340 Quinnipiac St., Bldg. 40, Wallingford CT 06492
  
  
 ---------------------------------------------------------------
 Warning -- This program may not be used in any manner that
 competes with the business of Gaussian, Inc. or will provide
 assistance to any competitor of Gaussian, Inc.  The licensee
 of this program is prohibited from giving any competitor of
 Gaussian, Inc. access to this program.  By using this program,
 the user acknowledges that Gaussian, Inc. is engaged in the
 business of creating and licensing software in the field of
 computational chemistry and represents and warrants to the
 licensee that it is not a competitor of Gaussian, Inc. and that
 it will not use this program in any manner prohibited above.
 ---------------------------------------------------------------
  

 Cite this work as:
 Gaussian 16, Revision C.01,
 M. J. Frisch, G. W. Trucks, H. B. Schlegel, G. E. Scuseria, 
 M. A. Robb, J. R. Cheeseman, G. Scalmani, V. Barone, 
 G. A. Petersson, H. Nakatsuji, X. Li, M. Caricato, A. V. Marenich, 
 J. Bloino, B. G. Janesko, R. Gomperts, B. Mennucci, H. P. Hratchian, 
 J. V. Ortiz, A. F. Izmaylov, J. L. Sonnenberg, D. Williams-Young, 
 F. Ding, F. Lipparini, F. Egidi, J. Goings, B. Peng, A. Petrone, 
 T. Henderson, D. Ranasinghe, V. G. Zakrzewski, J. Gao, N. Rega, 
 G. Zheng, W. Liang, M. Hada, M. Ehara, K. Toyota, R. Fukuda, 
 J. Hasegawa, M. Ishida, T. Nakajima, Y. Honda, O. Kitao, H. Nakai, 
 T. Vreven, K. Throssell, J. A. Montgomery, Jr., J. E. Peralta, 
 F. Ogliaro, M. J. Bearpark, J. J. Heyd, E. N. Brothers, K. N. Kudin, 
 V. N. Staroverov, T. A. Keith, R. Kobayashi, J. Normand, 
 K. Raghavachari, A. P. Rendell, J. C. Burant, S. S. Iyengar, 
 J. Tomasi, M. Cossi, J. M. Millam, M. Klene, C. Adamo, R. Cammi, 
 J. W. Ochterski, R. L. Martin, K. Morokuma, O. Farkas, 
 J. B. Foresman, and D. J. Fox, Gaussian, Inc., Wallingford CT, 2019.
 
 ******************************************
 Gaussian 16:  ES64L-G16RevC.01  3-Jul-2019
                21-Aug-2021 
 ******************************************
 %chk=XWBDWHCCBGMXKG-UHFFFAOYSA-N.chk
 %NProcShared=24
 Will use up to   24 processors via shared memory.
 -------------------------------------------------------------
 #P BP86/TZVP EmpiricalDispersion=GD3 SCRF=(Solvent=Water) Opt
 -------------------------------------------------------------
 1/18=20,19=15,26=3,38=1/1,3;
 2/9=110,12=2,17=6,18=5,40=1/2;
 3/5=19,7=101,11=2,25=1,30=1,70=2201,71=1,72=1,74=404,124=31/1,2,3;
 4//1;
 5/5=2,38=5,53=1/2;
 6/7=2,8=2,9=2,10=2,28=1/1;
 7//1,2,3,16;
 1/18=20,19=15,26=3/3(2);
 2/9=110/2;
 99//99;
 2/9=110/2;
 3/5=19,7=101,11=2,25=1,30=1,70=2205,71=1,72=1,74=404,124=31/1,2,3;
 4/5=5,16=3,69=1/1;
 5/5=2,38=5,53=1/2;
 7//1,2,3,16;
 1/18=20,19=15,26=3/3(-5);
 2/9=110/2;
 6/7=2,8=2,9=2,10=2,19=2,28=1/1;
 99/9=1/99;
 Leave Link    1 at Sat Aug 21 09:33:13 2021, MaxMem=           0 cpu:               3.5 elap:               0.2
 (Enter /sw/arch/RedHatEnterpriseServer7/EB_production/2020/software/Gaussian/g16.c01/l101.exe)
 -------------------------------------
 Particle #XWBDWHCCBGMXKG-UHFFFAOYSA-N
 -------------------------------------
 Symbolic Z-matrix:
 Charge =  0 Multiplicity = 1
 C                     1.13299  -0.81597   0.30146 
 C                     0.06667   0.27411   0.38422 
 N                    -0.69419   0.36073  -0.86149 
 Cl                   -2.78886   2.55577  -0.59757 
 H                     1.695    -0.86065   1.25804 
 H                     1.84563  -0.59443  -0.52112 
 H                     0.65902  -1.80381   0.11954 
 H                     0.55811   1.25063   0.58956 
 H                    -0.62274   0.04712   1.22711 
 H                    -1.41331   1.11431  -0.77089 
 H                    -0.05589   0.59529  -1.65628 
 H                    -1.1772   -0.54754  -1.05087 
 
 Add virtual bond connecting atoms H10        and Cl4        Dist= 3.78D+00.
 ITRead=  0  0  0  0  0  0  0  0  0  0  0  0
 MicOpt= -1 -1 -1 -1 -1 -1 -1 -1 -1 -1 -1 -1
 NAtoms=     12 NQM=       12 NQMF=       0 NMMI=      0 NMMIF=      0
                NMic=       0 NMicF=      0.
                    Isotopes and Nuclear Properties:
 (Nuclear quadrupole moments (NQMom) in fm**2, nuclear magnetic moments (NMagM)
  in nuclear magnetons)

  Atom         1           2           3           4           5           6           7           8           9          10
 IAtWgt=          12          12          14          35           1           1           1           1           1           1
 AtmWgt=  12.0000000  12.0000000  14.0030740  34.9688527   1.0078250   1.0078250   1.0078250   1.0078250   1.0078250   1.0078250
 NucSpn=           0           0           2           3           1           1           1           1           1           1
 AtZEff=  -0.0000000  -0.0000000  -0.0000000  -0.0000000  -0.0000000  -0.0000000  -0.0000000  -0.0000000  -0.0000000  -0.0000000
 NQMom=    0.0000000   0.0000000   2.0440000  -8.1650000   0.0000000   0.0000000   0.0000000   0.0000000   0.0000000   0.0000000
 NMagM=    0.0000000   0.0000000   0.4037610   0.8218740   2.7928460   2.7928460   2.7928460   2.7928460   2.7928460   2.7928460
 AtZNuc=   6.0000000   6.0000000   7.0000000  17.0000000   1.0000000   1.0000000   1.0000000   1.0000000   1.0000000   1.0000000

  Atom        11          12
 IAtWgt=           1           1
 AtmWgt=   1.0078250   1.0078250
 NucSpn=           1           1
 AtZEff=  -0.0000000  -0.0000000
 NQMom=    0.0000000   0.0000000
 NMagM=    2.7928460   2.7928460
 AtZNuc=   1.0000000   1.0000000
 Leave Link  101 at Sat Aug 21 09:33:13 2021, MaxMem=   104857600 cpu:               1.8 elap:               0.1
 (Enter /sw/arch/RedHatEnterpriseServer7/EB_production/2020/software/Gaussian/g16.c01/l103.exe)

 GradGradGradGradGradGradGradGradGradGradGradGradGradGradGradGradGradGrad
 Berny optimization.
 Initialization pass.
                           ----------------------------
                           !    Initial Parameters    !
                           ! (Angstroms and Degrees)  !
 --------------------------                            --------------------------
 ! Name  Definition              Value          Derivative Info.                !
 --------------------------------------------------------------------------------
 ! R1    R(1,2)                  1.5271         estimate D2E/DX2                !
 ! R2    R(1,5)                  1.1104         estimate D2E/DX2                !
 ! R3    R(1,6)                  1.1107         estimate D2E/DX2                !
 ! R4    R(1,7)                  1.1107         estimate D2E/DX2                !
 ! R5    R(2,3)                  1.4623         estimate D2E/DX2                !
 ! R6    R(2,8)                  1.1123         estimate D2E/DX2                !
 ! R7    R(2,9)                  1.1123         estimate D2E/DX2                !
 ! R8    R(3,10)                 1.0456         estimate D2E/DX2                !
 ! R9    R(3,11)                 1.046          estimate D2E/DX2                !
 ! R10   R(3,12)                 1.046          estimate D2E/DX2                !
 ! R11   R(4,10)                 2.0            estimate D2E/DX2                !
 ! A1    A(2,1,5)              109.5998         estimate D2E/DX2                !
 ! A2    A(2,1,6)              110.2291         estimate D2E/DX2                !
 ! A3    A(2,1,7)              110.2292         estimate D2E/DX2                !
 ! A4    A(5,1,6)              108.7422         estimate D2E/DX2                !
 ! A5    A(5,1,7)              108.7423         estimate D2E/DX2                !
 ! A6    A(6,1,7)              109.2639         estimate D2E/DX2                !
 ! A7    A(1,2,3)              111.0657         estimate D2E/DX2                !
 ! A8    A(1,2,8)              109.1576         estimate D2E/DX2                !
 ! A9    A(1,2,9)              109.1576         estimate D2E/DX2                !
 ! A10   A(3,2,8)              109.5814         estimate D2E/DX2                !
 ! A11   A(3,2,9)              109.5814         estimate D2E/DX2                !
 ! A12   A(8,2,9)              108.2457         estimate D2E/DX2                !
 ! A13   A(2,3,10)             109.0713         estimate D2E/DX2                !
 ! A14   A(2,3,11)             110.0638         estimate D2E/DX2                !
 ! A15   A(2,3,12)             110.0638         estimate D2E/DX2                !
 ! A16   A(10,3,11)            108.9007         estimate D2E/DX2                !
 ! A17   A(10,3,12)            108.9005         estimate D2E/DX2                !
 ! A18   A(11,3,12)            109.8118         estimate D2E/DX2                !
 ! A19   L(3,10,4,8,-1)        180.0            estimate D2E/DX2                !
 ! A20   L(3,10,4,8,-2)        180.0            estimate D2E/DX2                !
 ! D1    D(5,1,2,3)           -179.9999         estimate D2E/DX2                !
 ! D2    D(5,1,2,8)             59.0682         estimate D2E/DX2                !
 ! D3    D(5,1,2,9)            -59.0682         estimate D2E/DX2                !
 ! D4    D(6,1,2,3)             60.3493         estimate D2E/DX2                !
 ! D5    D(6,1,2,8)            -60.5826         estimate D2E/DX2                !
 ! D6    D(6,1,2,9)           -178.719          estimate D2E/DX2                !
 ! D7    D(7,1,2,3)            -60.3491         estimate D2E/DX2                !
 ! D8    D(7,1,2,8)            178.7191         estimate D2E/DX2                !
 ! D9    D(7,1,2,9)             60.5827         estimate D2E/DX2                !
 ! D10   D(1,2,3,10)           179.9999         estimate D2E/DX2                !
 ! D11   D(1,2,3,11)           -60.5836         estimate D2E/DX2                !
 ! D12   D(1,2,3,12)            60.5837         estimate D2E/DX2                !
 ! D13   D(8,2,3,10)           -59.3181         estimate D2E/DX2                !
 ! D14   D(8,2,3,11)            60.0983         estimate D2E/DX2                !
 ! D15   D(8,2,3,12)          -178.7344         estimate D2E/DX2                !
 ! D16   D(9,2,3,10)            59.318          estimate D2E/DX2                !
 ! D17   D(9,2,3,11)           178.7345         estimate D2E/DX2                !
 ! D18   D(9,2,3,12)           -60.0983         estimate D2E/DX2                !
 --------------------------------------------------------------------------------
 Trust Radius=3.00D-01 FncErr=1.00D-07 GrdErr=1.00D-06 EigMax=2.50D+02 EigMin=1.00D-04
 Number of steps in this run=     59 maximum allowed number of steps=    100.
 GradGradGradGradGradGradGradGradGradGradGradGradGradGradGradGradGradGrad

 Leave Link  103 at Sat Aug 21 09:33:13 2021, MaxMem=   104857600 cpu:               0.2 elap:               0.0
 (Enter /sw/arch/RedHatEnterpriseServer7/EB_production/2020/software/Gaussian/g16.c01/l202.exe)
                          Input orientation:                          
 ---------------------------------------------------------------------
 Center     Atomic      Atomic             Coordinates (Angstroms)
 Number     Number       Type             X           Y           Z
 ---------------------------------------------------------------------
      1          6           0        1.132987   -0.815969    0.301455
      2          6           0        0.066674    0.274107    0.384216
      3          7           0       -0.694189    0.360732   -0.861494
      4         17           0       -2.788864    2.555768   -0.597568
      5          1           0        1.694995   -0.860647    1.258042
      6          1           0        1.845630   -0.594428   -0.521123
      7          1           0        0.659019   -1.803812    0.119542
      8          1           0        0.558114    1.250632    0.589555
      9          1           0       -0.622735    0.047119    1.227111
     10          1           0       -1.413309    1.114307   -0.770886
     11          1           0       -0.055891    0.595287   -1.656277
     12          1           0       -1.177199   -0.547541   -1.050868
 ---------------------------------------------------------------------
                    Distance matrix (angstroms):
                    1          2          3          4          5
     1  C    0.000000
     2  C    1.527134   0.000000
     3  N    2.464883   1.462262   0.000000
     4  Cl   5.249549   3.784703   3.045571   0.000000
     5  H    1.110364   2.168564   3.419415   5.934658   0.000000
     6  H    1.110664   2.176850   2.734751   5.604294   1.805268
     7  H    1.110663   2.176849   2.734749   5.604291   1.805267
     8  H    2.164329   1.112330   2.113227   3.783504   2.489352
     9  H    2.164329   1.112331   2.113227   3.783502   2.489351
    10  H    3.370386   2.056829   1.045571   2.000000   4.204586
    11  H    2.690314   2.069249   1.046002   3.526115   3.698459
    12  H    2.690314   2.069249   1.046002   3.526113   3.698459
                    6          7          8          9         10
     6  H    0.000000
     7  H    1.811383   0.000000
     8  H    2.509093   3.092042   0.000000
     9  H    3.092043   2.509093   1.802589   0.000000
    10  H    3.688203   3.688201   2.399144   2.399143   0.000000
    11  H    2.513917   3.069252   2.418727   2.989269   1.701729
    12  H    3.069255   2.513916   2.989268   2.418727   1.701728
                   11         12
    11  H    0.000000
    12  H    1.711697   0.000000
 Stoichiometry    C2H8ClN
 Framework group  C1[X(C2H8ClN)]
 Deg. of freedom    30
 Full point group                 C1      NOp   1
 Largest Abelian subgroup         C1      NOp   1
 Largest concise Abelian subgroup C1      NOp   1
                         Standard orientation:                         
 ---------------------------------------------------------------------
 Center     Atomic      Atomic             Coordinates (Angstroms)
 Number     Number       Type             X           Y           Z
 ---------------------------------------------------------------------
      1          6           0        2.824302   -0.119265   -0.000001
      2          6           0        1.341823   -0.485863    0.000001
      3          7           0        0.504034    0.712602    0.000000
      4         17           0       -2.425247   -0.120955   -0.000000
      5          1           0        3.436986   -1.045293   -0.000001
      6          1           0        3.073349    0.473418    0.905690
      7          1           0        3.073346    0.473417   -0.905692
      8          1           0        1.117120   -1.097790    0.901296
      9          1           0        1.117118   -1.097792   -0.901293
     10          1           0       -0.501613    0.426435    0.000000
     11          1           0        0.693948    1.283197    0.855848
     12          1           0        0.693945    1.283195   -0.855849
 ---------------------------------------------------------------------
 Rotational constants (GHZ):          22.1067433           1.3912159           1.3419847
 Leave Link  202 at Sat Aug 21 09:33:13 2021, MaxMem=   104857600 cpu:               0.8 elap:               0.1
 (Enter /sw/arch/RedHatEnterpriseServer7/EB_production/2020/software/Gaussian/g16.c01/l301.exe)
 Standard basis: TZVP (5D, 7F)
 Ernie: Thresh=  0.10000D-02 Tol=  0.10000D-05 Strict=F.
 There are   131 symmetry adapted cartesian basis functions of A   symmetry.
 There are   127 symmetry adapted basis functions of A   symmetry.
   127 basis functions,   216 primitive gaussians,   131 cartesian basis functions
    22 alpha electrons       22 beta electrons
       nuclear repulsion energy       154.4224859230 Hartrees.
 IExCor=  404 DFT=T Ex=B Corr=P86 ExCW=0 ScaHFX=  0.000000
 ScaDFX=  1.000000  1.000000  1.000000  1.000000 ScalE2=  1.000000  1.000000
 IRadAn=      5 IRanWt=     -1 IRanGd=            0 ICorTp=0 IEmpDi=131
 NAtoms=   12 NActive=   12 NUniq=   12 SFac= 1.00D+00 NAtFMM=   60 NAOKFM=F Big=F
 Integral buffers will be    131072 words long.
 Raffenetti 2 integral format.
 Two-electron integral symmetry is turned on.
 R6Disp:  Grimme-D3 Dispersion energy=       -0.0076447857 Hartrees.
 Nuclear repulsion after empirical dispersion term =      154.4148411373 Hartrees.
 ------------------------------------------------------------------------------
 Polarizable Continuum Model (PCM)
 =================================
 Model                : PCM.
 Atomic radii         : UFF (Universal Force Field).
 Polarization charges : Total charges.
 Charge compensation  : None.
 Solution method      : On-the-fly selection.
 Cavity type          : Scaled VdW (van der Waals Surface) (Alpha=1.100).
 Cavity algorithm     : GePol (No added spheres)
                        Default sphere list used, NSphG=   12.
                        Lebedev-Laikov grids with approx.  5.0 points / Ang**2.
                        Smoothing algorithm: York/Karplus (Gamma=1.0000).
                        Polarization charges: spherical gaussians, with
                                              point-specific exponents (IZeta= 3).
                        Self-potential: point-specific (ISelfS= 7).
                        Self-field    : sphere-specific E.n sum rule (ISelfD= 2).
 1st derivatives      : Analytical E(r).r(x)/FMM algorithm (CHGder, D1EAlg=3).
                        Cavity 1st derivative terms included.
 Solvent              : Water, Eps=  78.355300 Eps(inf)=   1.777849
 ------------------------------------------------------------------------------
 Spheres list:
 ISph  on   Nord     Re0    Alpha      Xe            Ye            Ze
    1   C      1    1.9255  1.100      2.824302     -0.119265     -0.000001
    2   C      2    1.9255  1.100      1.341823     -0.485863      0.000001
    3   N      3    1.8300  1.100      0.504034      0.712602      0.000000
    4  Cl      4    1.9735  1.100     -2.425247     -0.120955     -0.000000
    5   H      5    1.4430  1.100      3.436986     -1.045293     -0.000001
    6   H      6    1.4430  1.100      3.073349      0.473418      0.905690
    7   H      7    1.4430  1.100      3.073346      0.473417     -0.905692
    8   H      8    1.4430  1.100      1.117120     -1.097790      0.901296
    9   H      9    1.4430  1.100      1.117118     -1.097792     -0.901293
   10   H     10    1.4430  1.100     -0.501613      0.426435      0.000000
   11   H     11    1.4430  1.100      0.693948      1.283197      0.855848
   12   H     12    1.4430  1.100      0.693945      1.283195     -0.855849
 ------------------------------------------------------------------------------
 GePol: Number of generator spheres                  =      12
 GePol: Total number of spheres                      =      12
 GePol: Number of exposed spheres                    =      12 (100.00%)
 GePol: Number of points                             =    1094
 GePol: Average weight of points                     =       0.14
 GePol: Minimum weight of points                     =   0.29D-11
 GePol: Maximum weight of points                     =    0.21616
 GePol: Number of points with low weight             =      67
 GePol: Fraction of low-weight points (<1% of avg)   =       6.12%
 GePol: Cavity surface area                          =    158.216 Ang**2
 GePol: Cavity volume                                =    137.089 Ang**3
 Leave Link  301 at Sat Aug 21 09:33:14 2021, MaxMem=   104857600 cpu:               1.2 elap:               0.1
 (Enter /sw/arch/RedHatEnterpriseServer7/EB_production/2020/software/Gaussian/g16.c01/l302.exe)
 NPDir=0 NMtPBC=     1 NCelOv=     1 NCel=       1 NClECP=     1 NCelD=      1
         NCelK=      1 NCelE2=     1 NClLst=     1 CellRange=     0.0.
 One-electron integrals computed using PRISM.
 One-electron integral symmetry used in STVInt
 NBasis=   127 RedAO= T EigKep=  5.08D-04  NBF=   127
 NBsUse=   127 1.00D-06 EigRej= -1.00D+00 NBFU=   127
 Precomputing XC quadrature grid using
 IXCGrd= 4 IRadAn=           5 IRanWt=          -1 IRanGd=           0 AccXCQ= 0.00D+00.
 Generated NRdTot=       0 NPtTot=           0 NUsed=           0 NTot=          32
 NSgBfM=   130   130   130   130   130 MxSgAt=    12 MxSgA2=    12.
 Leave Link  302 at Sat Aug 21 09:33:15 2021, MaxMem=   104857600 cpu:               4.3 elap:               0.2
 (Enter /sw/arch/RedHatEnterpriseServer7/EB_production/2020/software/Gaussian/g16.c01/l303.exe)
 DipDrv:  MaxL=1.
 Leave Link  303 at Sat Aug 21 09:33:15 2021, MaxMem=   104857600 cpu:               1.2 elap:               0.1
 (Enter /sw/arch/RedHatEnterpriseServer7/EB_production/2020/software/Gaussian/g16.c01/l401.exe)
 ExpMin= 9.52D-02 ExpMax= 6.95D+04 ExpMxC= 2.37D+03 IAcc=3 IRadAn=         5 AccDes= 0.00D+00
 Harris functional with IExCor=  404 and IRadAn=       5 diagonalized for initial guess.
 HarFok:  IExCor=  404 AccDes= 0.00D+00 IRadAn=         5 IDoV= 1 UseB2=F ITyADJ=14
 ICtDFT=  3500011 ScaDFX=  1.000000  1.000000  1.000000  1.000000
 FoFCou: FMM=F IPFlag=           0 FMFlag=      100000 FMFlg1=           0
         NFxFlg=           0 DoJE=T BraDBF=F KetDBF=T FulRan=T
         wScrn=  0.000000 ICntrl=       500 IOpCl=  0 I1Cent=   200000004 NGrid=           0
         NMat0=    1 NMatS0=      1 NMatT0=    0 NMatD0=    1 NMtDS0=    0 NMtDT0=    0
 Petite list used in FoFCou.
 Harris En= -596.125150474473    
 JPrj=0 DoOrth=F DoCkMO=F.
 Leave Link  401 at Sat Aug 21 09:33:15 2021, MaxMem=   104857600 cpu:               7.0 elap:               0.3
 (Enter /sw/arch/RedHatEnterpriseServer7/EB_production/2020/software/Gaussian/g16.c01/l502.exe)
 Keep J ints in memory in canonical form, NReq=55982632.
 FoFCou: FMM=F IPFlag=           0 FMFlag=           0 FMFlg1=           0
         NFxFlg=           0 DoJE=F BraDBF=F KetDBF=F FulRan=T
         wScrn=  0.000000 ICntrl=       600 IOpCl=  0 I1Cent=           0 NGrid=           0
         NMat0=    1 NMatS0=   8128 NMatT0=    0 NMatD0=    1 NMtDS0=    0 NMtDT0=    0
 Symmetry not used in FoFCou.
 Two-electron integral symmetry not used.
 Closed shell SCF:
 Using DIIS extrapolation, IDIIS=  1040.
 NGot=   104857600 LenX=    71782082 LenY=    71764480
 Requested convergence on RMS density matrix=1.00D-08 within 128 cycles.
 Requested convergence on MAX density matrix=1.00D-06.
 Requested convergence on             energy=1.00D-06.
 No special actions if energy rises.

 Cycle   1  Pass 1  IDiag  1:
 Inv3:  Mode=1 IEnd=     3590508.
 Iteration    1 A*A^-1 deviation from unit magnitude is 2.89D-15 for    439.
 Iteration    1 A*A^-1 deviation from orthogonality  is 1.87D-15 for    764    323.
 Iteration    1 A^-1*A deviation from unit magnitude is 2.89D-15 for    439.
 Iteration    1 A^-1*A deviation from orthogonality  is 1.66D-15 for    726     12.
 E= -596.038060950328    
 DIIS: error= 3.35D-02 at cycle   1 NSaved=   1.
 NSaved= 1 IEnMin= 1 EnMin= -596.038060950328     IErMin= 1 ErrMin= 3.35D-02
 ErrMax= 3.35D-02  0.00D+00 EMaxC= 1.00D-01 BMatC= 1.03D-01 BMatP= 1.03D-01
 IDIUse=3 WtCom= 6.65D-01 WtEn= 3.35D-01
 Coeff-Com:  0.100D+01
 Coeff-En:   0.100D+01
 Coeff:      0.100D+01
 Gap=     0.186 Goal=   None    Shift=    0.000
 GapD=    0.186 DampG=1.000 DampE=0.500 DampFc=0.5000 IDamp=-1.
 Damping current iteration by 5.00D-01
 RMSDP=4.84D-03 MaxDP=1.05D-01              OVMax= 1.81D-01

 Cycle   2  Pass 1  IDiag  1:
 E= -596.072951476508     Delta-E=       -0.034890526180 Rises=F Damp=T
 DIIS: error= 7.91D-03 at cycle   2 NSaved=   2.
 NSaved= 2 IEnMin= 2 EnMin= -596.072951476508     IErMin= 2 ErrMin= 7.91D-03
 ErrMax= 7.91D-03  0.00D+00 EMaxC= 1.00D-01 BMatC= 1.09D-02 BMatP= 1.03D-01
 IDIUse=3 WtCom= 9.21D-01 WtEn= 7.91D-02
 Coeff-Com:  0.144D+00 0.856D+00
 Coeff-En:   0.273D+00 0.727D+00
 Coeff:      0.154D+00 0.846D+00
 Gap=     0.206 Goal=   None    Shift=    0.000
 RMSDP=8.88D-04 MaxDP=1.35D-02 DE=-3.49D-02 OVMax= 1.08D-01

 Cycle   3  Pass 1  IDiag  1:
 E= -596.134190672907     Delta-E=       -0.061239196399 Rises=F Damp=F
 DIIS: error= 3.34D-03 at cycle   3 NSaved=   3.
 NSaved= 3 IEnMin= 3 EnMin= -596.134190672907     IErMin= 3 ErrMin= 3.34D-03
 ErrMax= 3.34D-03  0.00D+00 EMaxC= 1.00D-01 BMatC= 1.13D-03 BMatP= 1.09D-02
 IDIUse=3 WtCom= 9.67D-01 WtEn= 3.34D-02
 Coeff-Com: -0.862D-02 0.211D+00 0.797D+00
 Coeff-En:   0.000D+00 0.000D+00 0.100D+01
 Coeff:     -0.833D-02 0.204D+00 0.804D+00
 Gap=     0.218 Goal=   None    Shift=    0.000
 RMSDP=3.94D-04 MaxDP=8.24D-03 DE=-6.12D-02 OVMax= 1.20D-02

 Cycle   4  Pass 1  IDiag  1:
 E= -596.134975316728     Delta-E=       -0.000784643821 Rises=F Damp=F
 DIIS: error= 2.02D-03 at cycle   4 NSaved=   4.
 NSaved= 4 IEnMin= 4 EnMin= -596.134975316728     IErMin= 4 ErrMin= 2.02D-03
 ErrMax= 2.02D-03  0.00D+00 EMaxC= 1.00D-01 BMatC= 3.25D-04 BMatP= 1.13D-03
 IDIUse=3 WtCom= 9.80D-01 WtEn= 2.02D-02
 Coeff-Com: -0.435D-02 0.868D-01 0.406D+00 0.511D+00
 Coeff-En:   0.000D+00 0.000D+00 0.185D+00 0.815D+00
 Coeff:     -0.426D-02 0.851D-01 0.402D+00 0.517D+00
 Gap=     0.212 Goal=   None    Shift=    0.000
 RMSDP=1.94D-04 MaxDP=6.83D-03 DE=-7.85D-04 OVMax= 6.47D-03

 Cycle   5  Pass 1  IDiag  1:
 E= -596.135276678125     Delta-E=       -0.000301361397 Rises=F Damp=F
 DIIS: error= 4.46D-04 at cycle   5 NSaved=   5.
 NSaved= 5 IEnMin= 5 EnMin= -596.135276678125     IErMin= 5 ErrMin= 4.46D-04
 ErrMax= 4.46D-04  0.00D+00 EMaxC= 1.00D-01 BMatC= 1.53D-05 BMatP= 3.25D-04
 IDIUse=3 WtCom= 9.96D-01 WtEn= 4.46D-03
 Coeff-Com: -0.288D-02 0.219D-01 0.135D+00 0.235D+00 0.611D+00
 Coeff-En:   0.000D+00 0.000D+00 0.000D+00 0.000D+00 0.100D+01
 Coeff:     -0.287D-02 0.218D-01 0.134D+00 0.234D+00 0.613D+00
 Gap=     0.213 Goal=   None    Shift=    0.000
 RMSDP=3.96D-05 MaxDP=1.33D-03 DE=-3.01D-04 OVMax= 1.50D-03

 Cycle   6  Pass 1  IDiag  1:
 E= -596.135289415751     Delta-E=       -0.000012737626 Rises=F Damp=F
 DIIS: error= 8.74D-05 at cycle   6 NSaved=   6.
 NSaved= 6 IEnMin= 6 EnMin= -596.135289415751     IErMin= 6 ErrMin= 8.74D-05
 ErrMax= 8.74D-05  0.00D+00 EMaxC= 1.00D-01 BMatC= 1.14D-06 BMatP= 1.53D-05
 IDIUse=1 WtCom= 1.00D+00 WtEn= 0.00D+00
 Coeff-Com: -0.129D-02 0.682D-02 0.461D-01 0.856D-01 0.320D+00 0.543D+00
 Coeff:     -0.129D-02 0.682D-02 0.461D-01 0.856D-01 0.320D+00 0.543D+00
 Gap=     0.213 Goal=   None    Shift=    0.000
 RMSDP=6.41D-06 MaxDP=1.26D-04 DE=-1.27D-05 OVMax= 2.57D-04

 Cycle   7  Pass 1  IDiag  1:
 E= -596.135290299887     Delta-E=       -0.000000884136 Rises=F Damp=F
 DIIS: error= 3.80D-05 at cycle   7 NSaved=   7.
 NSaved= 7 IEnMin= 7 EnMin= -596.135290299887     IErMin= 7 ErrMin= 3.80D-05
 ErrMax= 3.80D-05  0.00D+00 EMaxC= 1.00D-01 BMatC= 1.37D-07 BMatP= 1.14D-06
 IDIUse=1 WtCom= 1.00D+00 WtEn= 0.00D+00
 Coeff-Com: -0.408D-03 0.128D-02 0.952D-02 0.176D-01 0.112D+00 0.314D+00
 Coeff-Com:  0.546D+00
 Coeff:     -0.408D-03 0.128D-02 0.952D-02 0.176D-01 0.112D+00 0.314D+00
 Coeff:      0.546D+00
 Gap=     0.213 Goal=   None    Shift=    0.000
 RMSDP=2.41D-06 MaxDP=6.98D-05 DE=-8.84D-07 OVMax= 7.23D-05

 Cycle   8  Pass 1  IDiag  1:
 E= -596.135290413835     Delta-E=       -0.000000113948 Rises=F Damp=F
 DIIS: error= 3.52D-06 at cycle   8 NSaved=   8.
 NSaved= 8 IEnMin= 8 EnMin= -596.135290413835     IErMin= 8 ErrMin= 3.52D-06
 ErrMax= 3.52D-06  0.00D+00 EMaxC= 1.00D-01 BMatC= 1.32D-09 BMatP= 1.37D-07
 IDIUse=1 WtCom= 1.00D+00 WtEn= 0.00D+00
 Coeff-Com: -0.739D-04 0.127D-03 0.110D-02 0.206D-02 0.208D-01 0.743D-01
 Coeff-Com:  0.164D+00 0.738D+00
 Coeff:     -0.739D-04 0.127D-03 0.110D-02 0.206D-02 0.208D-01 0.743D-01
 Coeff:      0.164D+00 0.738D+00
 Gap=     0.213 Goal=   None    Shift=    0.000
 RMSDP=3.44D-07 MaxDP=4.79D-06 DE=-1.14D-07 OVMax= 1.38D-05

 Cycle   9  Pass 1  IDiag  1:
 E= -596.135290414740     Delta-E=       -0.000000000905 Rises=F Damp=F
 DIIS: error= 1.96D-06 at cycle   9 NSaved=   9.
 NSaved= 9 IEnMin= 9 EnMin= -596.135290414740     IErMin= 9 ErrMin= 1.96D-06
 ErrMax= 1.96D-06  0.00D+00 EMaxC= 1.00D-01 BMatC= 4.17D-10 BMatP= 1.32D-09
 IDIUse=1 WtCom= 1.00D+00 WtEn= 0.00D+00
 Coeff-Com: -0.178D-04 0.509D-05 0.113D-03 0.249D-03 0.429D-02 0.201D-01
 Coeff-Com:  0.533D-01 0.403D+00 0.519D+00
 Coeff:     -0.178D-04 0.509D-05 0.113D-03 0.249D-03 0.429D-02 0.201D-01
 Coeff:      0.533D-01 0.403D+00 0.519D+00
 Gap=     0.213 Goal=   None    Shift=    0.000
 RMSDP=1.30D-07 MaxDP=3.03D-06 DE=-9.05D-10 OVMax= 5.20D-06

 Cycle  10  Pass 1  IDiag  1:
 E= -596.135290415109     Delta-E=       -0.000000000369 Rises=F Damp=F
 DIIS: error= 3.82D-07 at cycle  10 NSaved=  10.
 NSaved=10 IEnMin=10 EnMin= -596.135290415109     IErMin=10 ErrMin= 3.82D-07
 ErrMax= 3.82D-07  0.00D+00 EMaxC= 1.00D-01 BMatC= 1.86D-11 BMatP= 4.17D-10
 IDIUse=1 WtCom= 1.00D+00 WtEn= 0.00D+00
 Coeff-Com:  0.126D-05-0.144D-04-0.992D-04-0.138D-03-0.637D-03 0.452D-03
 Coeff-Com:  0.617D-02 0.998D-01 0.223D+00 0.672D+00
 Coeff:      0.126D-05-0.144D-04-0.992D-04-0.138D-03-0.637D-03 0.452D-03
 Coeff:      0.617D-02 0.998D-01 0.223D+00 0.672D+00
 Gap=     0.213 Goal=   None    Shift=    0.000
 RMSDP=2.74D-08 MaxDP=5.45D-07 DE=-3.69D-10 OVMax= 1.12D-06

 Cycle  11  Pass 1  IDiag  1:
 E= -596.135290415124     Delta-E=       -0.000000000015 Rises=F Damp=F
 DIIS: error= 7.04D-08 at cycle  11 NSaved=  11.
 NSaved=11 IEnMin=11 EnMin= -596.135290415124     IErMin=11 ErrMin= 7.04D-08
 ErrMax= 7.04D-08  0.00D+00 EMaxC= 1.00D-01 BMatC= 1.57D-13 BMatP= 1.86D-11
 IDIUse=1 WtCom= 1.00D+00 WtEn= 0.00D+00
 Coeff-Com:  0.360D-06-0.355D-05-0.283D-04-0.389D-04-0.225D-03-0.180D-03
 Coeff-Com:  0.105D-02 0.200D-01 0.485D-01 0.177D+00 0.754D+00
 Coeff:      0.360D-06-0.355D-05-0.283D-04-0.389D-04-0.225D-03-0.180D-03
 Coeff:      0.105D-02 0.200D-01 0.485D-01 0.177D+00 0.754D+00
 Gap=     0.213 Goal=   None    Shift=    0.000
 RMSDP=5.12D-09 MaxDP=1.39D-07 DE=-1.50D-11 OVMax= 1.44D-07

 Error on total polarization charges =  0.01460
 SCF Done:  E(RB-P86) =  -596.135290415     A.U. after   11 cycles
            NFock= 11  Conv=0.51D-08     -V/T= 2.0036
 KE= 5.939912498077D+02 PE=-1.718277148848D+03 EE= 3.737357674877D+02
 Leave Link  502 at Sat Aug 21 09:33:19 2021, MaxMem=   104857600 cpu:              81.4 elap:               4.1
 (Enter /sw/arch/RedHatEnterpriseServer7/EB_production/2020/software/Gaussian/g16.c01/l601.exe)
 Copying SCF densities to generalized density rwf, IOpCl= 0 IROHF=0.

 **********************************************************************

            Population analysis using the SCF Density.

 **********************************************************************

 Orbital symmetries:
       Occupied  (A) (A) (A) (A) (A) (A) (A) (A) (A) (A) (A) (A)
                 (A) (A) (A) (A) (A) (A) (A) (A) (A) (A)
       Virtual   (A) (A) (A) (A) (A) (A) (A) (A) (A) (A) (A) (A)
                 (A) (A) (A) (A) (A) (A) (A) (A) (A) (A) (A) (A)
                 (A) (A) (A) (A) (A) (A) (A) (A) (A) (A) (A) (A)
                 (A) (A) (A) (A) (A) (A) (A) (A) (A) (A) (A) (A)
                 (A) (A) (A) (A) (A) (A) (A) (A) (A) (A) (A) (A)
                 (A) (A) (A) (A) (A) (A) (A) (A) (A) (A) (A) (A)
                 (A) (A) (A) (A) (A) (A) (A) (A) (A) (A) (A) (A)
                 (A) (A) (A) (A) (A) (A) (A) (A) (A) (A) (A) (A)
                 (A) (A) (A) (A) (A) (A) (A) (A) (A)
 The electronic state is 1-A.
 Alpha  occ. eigenvalues -- -100.65262 -14.10648  -9.96139  -9.90999  -9.09145
 Alpha  occ. eigenvalues --   -6.91054  -6.90911  -6.90906  -0.91945  -0.70474
 Alpha  occ. eigenvalues --   -0.64503  -0.59032  -0.53378  -0.51329  -0.45678
 Alpha  occ. eigenvalues --   -0.40644  -0.35977  -0.34541  -0.32802  -0.22775
 Alpha  occ. eigenvalues --   -0.21880  -0.21869
 Alpha virt. eigenvalues --   -0.00556   0.04006   0.04061   0.06133   0.08330
 Alpha virt. eigenvalues --    0.09043   0.09885   0.10851   0.12560   0.14568
 Alpha virt. eigenvalues --    0.18600   0.19411   0.20185   0.21796   0.24454
 Alpha virt. eigenvalues --    0.29044   0.29993   0.33574   0.34834   0.35752
 Alpha virt. eigenvalues --    0.38174   0.38270   0.38769   0.38822   0.40917
 Alpha virt. eigenvalues --    0.42117   0.43925   0.44845   0.45338   0.47758
 Alpha virt. eigenvalues --    0.53752   0.56560   0.66225   0.74999   0.79409
 Alpha virt. eigenvalues --    0.79617   0.79639   0.80175   0.95552   1.01262
 Alpha virt. eigenvalues --    1.02514   1.16184   1.16589   1.19446   1.21515
 Alpha virt. eigenvalues --    1.24193   1.27516   1.27853   1.32858   1.33930
 Alpha virt. eigenvalues --    1.43709   1.44309   1.44387   1.50383   1.53428
 Alpha virt. eigenvalues --    1.53585   1.60912   1.64879   1.69302   1.70233
 Alpha virt. eigenvalues --    1.71385   1.72894   1.75453   1.77898   1.81799
 Alpha virt. eigenvalues --    1.82558   1.83668   1.90246   1.96522   2.05730
 Alpha virt. eigenvalues --    2.11563   2.14533   2.18917   2.23248   2.24211
 Alpha virt. eigenvalues --    2.24818   2.29600   2.29605   2.33254   2.35972
 Alpha virt. eigenvalues --    2.44373   2.47865   2.48667   2.52480   2.52556
 Alpha virt. eigenvalues --    2.55421   2.58655   2.58677   2.68068   2.74410
 Alpha virt. eigenvalues --    2.77117   2.78736   2.94090   3.06098   3.17593
 Alpha virt. eigenvalues --    3.21621   3.25191   3.25886   3.62250   3.71627
 Alpha virt. eigenvalues --    3.76858  21.61888  21.71494  24.25220  31.31656
          Condensed to atoms (all electrons):
               1          2          3          4          5          6
     1  C    5.066099   0.244395  -0.058216   0.001420   0.399763   0.400801
     2  C    0.244395   5.144143   0.229942   0.003978  -0.034844  -0.036670
     3  N   -0.058216   0.229942   6.228757  -0.099290   0.006581  -0.002724
     4  Cl   0.001420   0.003978  -0.099290  17.762232   0.000026  -0.000011
     5  H    0.399763  -0.034844   0.006581   0.000026   0.505604  -0.019609
     6  H    0.400801  -0.036670  -0.002724  -0.000011  -0.019609   0.538941
     7  H    0.400801  -0.036670  -0.002724  -0.000011  -0.019609  -0.029052
     8  H   -0.033214   0.396339  -0.030104   0.004281  -0.001702  -0.008102
     9  H   -0.033214   0.396339  -0.030104   0.004281  -0.001702   0.007237
    10  H    0.006435  -0.019444   0.272699   0.143052  -0.000286  -0.000151
    11  H   -0.004345  -0.025950   0.347606   0.003475   0.000292   0.005739
    12  H   -0.004346  -0.025950   0.347606   0.003475   0.000292  -0.001418
               7          8          9         10         11         12
     1  C    0.400801  -0.033214  -0.033214   0.006435  -0.004345  -0.004346
     2  C   -0.036670   0.396339   0.396339  -0.019444  -0.025950  -0.025950
     3  N   -0.002724  -0.030104  -0.030104   0.272699   0.347606   0.347606
     4  Cl  -0.000011   0.004281   0.004281   0.143052   0.003475   0.003475
     5  H   -0.019609  -0.001702  -0.001702  -0.000286   0.000292   0.000292
     6  H   -0.029052  -0.008102   0.007237  -0.000151   0.005739  -0.001418
     7  H    0.538940   0.007237  -0.008102  -0.000151  -0.001418   0.005739
     8  H    0.007237   0.512297  -0.026799  -0.004227  -0.006413   0.006268
     9  H   -0.008102  -0.026799   0.512298  -0.004227   0.006268  -0.006413
    10  H   -0.000151  -0.004227  -0.004227   0.405865  -0.007928  -0.007928
    11  H   -0.001418  -0.006413   0.006268  -0.007928   0.388692  -0.015576
    12  H    0.005739   0.006268  -0.006413  -0.007928  -0.015576   0.388693
 Mulliken charges:
               1
     1  C   -0.386377
     2  C   -0.235607
     3  N   -0.210028
     4  Cl  -0.826907
     5  H    0.165192
     6  H    0.145020
     7  H    0.145020
     8  H    0.184139
     9  H    0.184139
    10  H    0.216289
    11  H    0.309559
    12  H    0.309559
 Sum of Mulliken charges =  -0.00000
 Mulliken charges with hydrogens summed into heavy atoms:
               1
     1  C    0.068856
     2  C    0.132671
     3  N    0.625379
     4  Cl  -0.826907
 Electronic spatial extent (au):  <R**2>=            845.6426
 Charge=             -0.0000 electrons
 Dipole moment (field-independent basis, Debye):
    X=             12.9313    Y=              2.9968    Z=             -0.0000  Tot=             13.2740
 Quadrupole moment (field-independent basis, Debye-Ang):
   XX=            -54.3204   YY=            -30.7417   ZZ=            -32.5963
   XY=             -0.5879   XZ=             -0.0000   YZ=             -0.0000
 Traceless Quadrupole moment (field-independent basis, Debye-Ang):
   XX=            -15.1009   YY=              8.4778   ZZ=              6.6231
   XY=             -0.5879   XZ=             -0.0000   YZ=             -0.0000
 Octapole moment (field-independent basis, Debye-Ang**2):
  XXX=             81.0571  YYY=              8.4371  ZZZ=             -0.0000  XYY=             10.1022
  XXY=              2.4197  XXZ=              0.0000  XZZ=              8.1905  YZZ=              4.3513
  YYZ=              0.0000  XYZ=              0.0000
 Hexadecapole moment (field-independent basis, Debye-Ang**3):
 XXXX=          -1153.5775 YYYY=            -83.1612 ZZZZ=            -54.5554 XXXY=            -13.9654
 XXXZ=             -0.0000 YYYX=              0.2279 YYYZ=              0.0000 ZZZX=             -0.0000
 ZZZY=             -0.0000 XXYY=           -182.2111 XXZZ=           -180.5562 YYZZ=            -18.9138
 XXYZ=              0.0000 YYXZ=              0.0000 ZZXY=              3.5116
 N-N= 1.544148411373D+02 E-N=-1.718277148579D+03  KE= 5.939912498077D+02
 No NMR shielding tensors so no spin-rotation constants.
 Leave Link  601 at Sat Aug 21 09:33:20 2021, MaxMem=   104857600 cpu:               6.1 elap:               0.3
 (Enter /sw/arch/RedHatEnterpriseServer7/EB_production/2020/software/Gaussian/g16.c01/l701.exe)
 ... and contract with generalized density number  0.
 Compute integral first derivatives.
 R6Disp: Adding Grimme-D3 dispersion energy 1st derivatives to the gradient.
 D1PCM: PCM CHGder 1st derivatives, ID1Alg=3 FixD1E=F DoIter=F DoCFld=F I1PDM=0.
 GePol: Maximum number of non-zero 1st derivatives   =     295
 Leave Link  701 at Sat Aug 21 09:33:21 2021, MaxMem=   104857600 cpu:              14.0 elap:               0.6
 (Enter /sw/arch/RedHatEnterpriseServer7/EB_production/2020/software/Gaussian/g16.c01/l702.exe)
 L702 exits ... SP integral derivatives will be done elsewhere.
 Leave Link  702 at Sat Aug 21 09:33:21 2021, MaxMem=   104857600 cpu:               0.4 elap:               0.0
 (Enter /sw/arch/RedHatEnterpriseServer7/EB_production/2020/software/Gaussian/g16.c01/l703.exe)
 Integral derivatives from FoFJK, PRISM(SPDF).
 Compute integral first derivatives, UseDBF=F ICtDFT=           0.
 Calling FoFJK, ICntrl=      2527 FMM=F ISym2X=0 I1Cent= 0 IOpClX= 0 NMat=1 NMatS=1 NMatT=0.
 FoFJK:  IHMeth= 1 ICntrl=    2527 DoSepK=F KAlg= 0 I1Cent=           0 FoldK=F
 IRaf=         0 NMat=       1 IRICut=       1 DoRegI=T DoRafI=F ISym2E= 0 IDoP0=0 IntGTp=1.
 FoFCou: FMM=F IPFlag=           0 FMFlag=      100000 FMFlg1=         800
         NFxFlg=           0 DoJE=F BraDBF=F KetDBF=F FulRan=T
         wScrn=  0.000000 ICntrl=      2527 IOpCl=  0 I1Cent=           0 NGrid=           0
         NMat0=    1 NMatS0=      1 NMatT0=    0 NMatD0=    1 NMtDS0=    0 NMtDT0=    0
 Symmetry not used in FoFCou.
 Leave Link  703 at Sat Aug 21 09:33:22 2021, MaxMem=   104857600 cpu:              12.5 elap:               0.6
 (Enter /sw/arch/RedHatEnterpriseServer7/EB_production/2020/software/Gaussian/g16.c01/l716.exe)
 Dipole        = 5.08756494D+00 1.17903279D+00-1.89079474D-07
 ***** Axes restored to original set *****
 -------------------------------------------------------------------
 Center     Atomic                   Forces (Hartrees/Bohr)
 Number     Number              X              Y              Z
 -------------------------------------------------------------------
      1        6           0.002902293   -0.002949114   -0.000193615
      2        6           0.019931002   -0.003525867    0.030260745
      3        7           0.006747946   -0.015762233   -0.017255249
      4       17           0.001048490   -0.000703037    0.000614855
      5        1          -0.003331825   -0.000429545   -0.006981890
      6        1          -0.002656030   -0.003095977    0.005126612
      7        1           0.004707054    0.004408055    0.001150907
      8        1          -0.008210807   -0.004741608   -0.003933833
      9        1           0.001161363    0.004810319   -0.008994179
     10        1          -0.017118116    0.014727090   -0.003905446
     11        1          -0.011162442   -0.005105209    0.006683471
     12        1           0.005981070    0.012367126   -0.002572377
 -------------------------------------------------------------------
 Cartesian Forces:  Max     0.030260745 RMS     0.009440909
 Leave Link  716 at Sat Aug 21 09:33:22 2021, MaxMem=   104857600 cpu:               0.6 elap:               0.1
 (Enter /sw/arch/RedHatEnterpriseServer7/EB_production/2020/software/Gaussian/g16.c01/l103.exe)

 GradGradGradGradGradGradGradGradGradGradGradGradGradGradGradGradGradGrad
 Berny optimization.
 FormGI is forming the generalized inverse of G from B-inverse, IUseBI=4.
 GSVD:  received Info=                   1 from GESDD.
 Internal  Forces:  Max     0.021844545 RMS     0.006097888
 Search for a local minimum.
 Step number   1 out of a maximum of   59
 All quantities printed in internal units (Hartrees-Bohrs-Radians)
 RMS Force = .60979D-02 SwitMx=.10000D-02 MixMth= 1
 Mixed Optimization -- RFO/linear search
 Second derivative matrix not updated -- first step.
 ITU=  0
     Eigenvalues ---    0.00230   0.00230   0.00407   0.00868   0.03953
     Eigenvalues ---    0.05109   0.05682   0.05712   0.05778   0.06009
     Eigenvalues ---    0.06159   0.08162   0.12038   0.16000   0.16000
     Eigenvalues ---    0.16000   0.16000   0.16000   0.16000   0.21939
     Eigenvalues ---    0.29690   0.32354   0.32355   0.32530   0.32530
     Eigenvalues ---    0.32562   0.36683   0.40436   0.40436   0.40496
 RFO step:  Lambda=-7.10948833D-03 EMin= 2.30000000D-03
 Linear search not attempted -- first point.
 Maximum step size (   0.300) exceeded in Quadratic search.
    -- Step size scaled by   0.863
 Iteration  1 RMS(Cart)=  0.08938295 RMS(Int)=  0.01127602
 Iteration  2 RMS(Cart)=  0.02575171 RMS(Int)=  0.00069842
 Iteration  3 RMS(Cart)=  0.00059910 RMS(Int)=  0.00036113
 Iteration  4 RMS(Cart)=  0.00000025 RMS(Int)=  0.00036113
 ITry= 1 IFail=0 DXMaxC= 5.14D-01 DCOld= 1.00D+10 DXMaxT= 3.00D-01 DXLimC= 3.00D+00 Rises=F
 Variable       Old X    -DE/DX   Delta X   Delta X   Delta X     New X
                                 (Linear)    (Quad)   (Total)
    R1        2.88587   0.00267   0.00000   0.00759   0.00759   2.89345
    R2        2.09828  -0.00769   0.00000  -0.01996  -0.01996   2.07833
    R3        2.09885  -0.00611   0.00000  -0.01587  -0.01587   2.08298
    R4        2.09885  -0.00611   0.00000  -0.01587  -0.01587   2.08298
    R5        2.76327   0.02184   0.00000   0.05042   0.05042   2.81370
    R6        2.10200  -0.00852   0.00000  -0.02223  -0.02223   2.07977
    R7        2.10200  -0.00852   0.00000  -0.02223  -0.02223   2.07977
    R8        1.97584   0.02089   0.00000   0.04375   0.04375   2.01959
    R9        1.97666  -0.01304   0.00000  -0.02735  -0.02735   1.94931
   R10        1.97666  -0.01304   0.00000  -0.02735  -0.02735   1.94931
   R11        3.77945  -0.00117   0.00000  -0.01570  -0.01570   3.76375
    A1        1.91288   0.00033   0.00000   0.00026   0.00026   1.91313
    A2        1.92386   0.00275   0.00000   0.01493   0.01484   1.93871
    A3        1.92386   0.00275   0.00000   0.01493   0.01484   1.93871
    A4        1.89791  -0.00176   0.00000  -0.01051  -0.01051   1.88741
    A5        1.89791  -0.00176   0.00000  -0.01051  -0.01051   1.88741
    A6        1.90701  -0.00244   0.00000  -0.00983  -0.00999   1.89702
    A7        1.93846   0.00502   0.00000   0.02143   0.02167   1.96013
    A8        1.90516   0.00193   0.00000   0.02840   0.02861   1.93377
    A9        1.90516   0.00193   0.00000   0.02841   0.02861   1.93377
   A10        1.91256  -0.00476   0.00000  -0.03671  -0.03731   1.87525
   A11        1.91256  -0.00476   0.00000  -0.03671  -0.03731   1.87525
   A12        1.88924   0.00056   0.00000  -0.00501  -0.00677   1.88247
   A13        1.90365   0.00415   0.00000   0.02533   0.02495   1.92860
   A14        1.92098   0.00430   0.00000   0.02022   0.02001   1.94099
   A15        1.92098   0.00430   0.00000   0.02022   0.02001   1.94099
   A16        1.90068  -0.00357   0.00000  -0.01457  -0.01493   1.88575
   A17        1.90067  -0.00357   0.00000  -0.01456  -0.01493   1.88575
   A18        1.91658  -0.00571   0.00000  -0.03694  -0.03697   1.87960
   A19        3.14159  -0.00272   0.00000  -0.24950  -0.24950   2.89209
   A20        3.14159   0.00113   0.00000   0.10365   0.10365   3.24525
    D1       -3.14159  -0.00000   0.00000  -0.00000  -0.00000  -3.14159
    D2        1.03094   0.00146   0.00000   0.01344   0.01346   1.04440
    D3       -1.03093  -0.00146   0.00000  -0.01345  -0.01346  -1.04440
    D4        1.05329   0.00026   0.00000   0.00354   0.00358   1.05687
    D5       -1.05737   0.00172   0.00000   0.01698   0.01704  -1.04032
    D6       -3.11923  -0.00120   0.00000  -0.00991  -0.00988  -3.12911
    D7       -1.05329  -0.00026   0.00000  -0.00354  -0.00358  -1.05687
    D8        3.11924   0.00120   0.00000   0.00991   0.00988   3.12912
    D9        1.05737  -0.00172   0.00000  -0.01698  -0.01704   1.04032
   D10        3.14159   0.00000   0.00000   0.00000   0.00000   3.14159
   D11       -1.05738   0.00077   0.00000   0.00992   0.01001  -1.04737
   D12        1.05738  -0.00077   0.00000  -0.00992  -0.01001   1.04737
   D13       -1.03530   0.00251   0.00000   0.02506   0.02451  -1.01079
   D14        1.04891   0.00328   0.00000   0.03498   0.03452   1.08343
   D15       -3.11950   0.00173   0.00000   0.01513   0.01450  -3.10501
   D16        1.03529  -0.00251   0.00000  -0.02506  -0.02451   1.01079
   D17        3.11950  -0.00173   0.00000  -0.01513  -0.01450   3.10501
   D18       -1.04891  -0.00328   0.00000  -0.03498  -0.03452  -1.08343
         Item               Value     Threshold  Converged?
 Maximum Force            0.021845     0.000450     NO 
 RMS     Force            0.006098     0.000300     NO 
 Maximum Displacement     0.514495     0.001800     NO 
 RMS     Displacement     0.110485     0.001200     NO 
 Predicted change in Energy=-3.815682D-03
 Lowest energy point so far.  Saving SCF results.
 GradGradGradGradGradGradGradGradGradGradGradGradGradGradGradGradGradGrad

 Leave Link  103 at Sat Aug 21 09:33:22 2021, MaxMem=   104857600 cpu:               0.9 elap:               0.1
 (Enter /sw/arch/RedHatEnterpriseServer7/EB_production/2020/software/Gaussian/g16.c01/l202.exe)
                          Input orientation:                          
 ---------------------------------------------------------------------
 Center     Atomic      Atomic             Coordinates (Angstroms)
 Number     Number       Type             X           Y           Z
 ---------------------------------------------------------------------
      1          6           0        1.141852   -0.802092    0.338761
      2          6           0        0.050025    0.271247    0.355296
      3          7           0       -0.703870    0.330340   -0.927319
      4         17           0       -2.648027    2.582659   -0.325309
      5          1           0        1.669011   -0.807388    1.303977
      6          1           0        1.880767   -0.603770   -0.454753
      7          1           0        0.710746   -1.803686    0.177678
      8          1           0        0.484101    1.267556    0.529045
      9          1           0       -0.677987    0.075775    1.157189
     10          1           0       -1.456991    1.087388   -0.884266
     11          1           0       -0.078170    0.546690   -1.718359
     12          1           0       -1.166224   -0.569164   -1.130233
 ---------------------------------------------------------------------
                    Distance matrix (angstroms):
                    1          2          3          4          5
     1  C    0.000000
     2  C    1.531149   0.000000
     3  N    2.508397   1.488943   0.000000
     4  Cl   5.124521   3.617366   3.035639   0.000000
     5  H    1.099803   2.164386   3.450171   5.725716   0.000000
     6  H    1.102266   2.184822   2.788589   5.538959   1.783096
     7  H    1.102266   2.184822   2.788588   5.547466   1.783096
     8  H    2.179975   1.100565   2.100154   3.502806   2.511957
     9  H    2.179975   1.100565   2.100154   3.516153   2.511956
    10  H    3.438011   2.115112   1.068722   1.991692   4.260338
    11  H    2.745799   2.095793   1.031529   3.562292   3.744421
    12  H    2.745799   2.095793   1.031529   3.574582   3.744421
                    6          7          8          9         10
     6  H    0.000000
     7  H    1.791289   0.000000
     8  H    2.533850   3.099573   0.000000
     9  H    3.099574   2.533850   1.779144   0.000000
    10  H    3.766314   3.766313   2.407851   2.407851   0.000000
    11  H    2.599557   3.121156   2.426236   2.974949   1.699768
    12  H    3.121157   2.599556   2.974948   2.426236   1.699767
                   11         12
    11  H    0.000000
    12  H    1.665798   0.000000
 Stoichiometry    C2H8ClN
 Framework group  C1[X(C2H8ClN)]
 Deg. of freedom    30
 Full point group                 C1      NOp   1
 RotChk:  IX=0 Diff= 8.74D-02
 Largest Abelian subgroup         C1      NOp   1
 Largest concise Abelian subgroup C1      NOp   1
                         Standard orientation:                         
 ---------------------------------------------------------------------
 Center     Atomic      Atomic             Coordinates (Angstroms)
 Number     Number       Type             X           Y           Z
 ---------------------------------------------------------------------
      1          6           0        2.771190   -0.238604    0.004415
      2          6           0        1.253687   -0.442312   -0.005862
      3          7           0        0.510242    0.847735   -0.001382
      4         17           0       -2.352749   -0.161414    0.001280
      5          1           0        3.274966   -1.216236    0.000670
      6          1           0        3.091574    0.309111    0.905721
      7          1           0        3.102058    0.321375   -0.885495
      8          1           0        0.929995   -1.012705    0.877947
      9          1           0        0.940408   -1.000525   -0.901126
     10          1           0       -0.543945    0.672231   -0.008755
     11          1           0        0.735487    1.405370    0.836687
     12          1           0        0.745237    1.416774   -0.829044
 ---------------------------------------------------------------------
 Rotational constants (GHZ):          18.8657310           1.4709068           1.3993640
 Leave Link  202 at Sat Aug 21 09:33:22 2021, MaxMem=   104857600 cpu:               1.0 elap:               0.1
 (Enter /sw/arch/RedHatEnterpriseServer7/EB_production/2020/software/Gaussian/g16.c01/l301.exe)
 Standard basis: TZVP (5D, 7F)
 Ernie: Thresh=  0.10000D-02 Tol=  0.10000D-05 Strict=F.
 There are   131 symmetry adapted cartesian basis functions of A   symmetry.
 There are   127 symmetry adapted basis functions of A   symmetry.
   127 basis functions,   216 primitive gaussians,   131 cartesian basis functions
    22 alpha electrons       22 beta electrons
       nuclear repulsion energy       155.2804741413 Hartrees.
 IExCor=  404 DFT=T Ex=B Corr=P86 ExCW=0 ScaHFX=  0.000000
 ScaDFX=  1.000000  1.000000  1.000000  1.000000 ScalE2=  1.000000  1.000000
 IRadAn=      5 IRanWt=     -1 IRanGd=            0 ICorTp=0 IEmpDi=131
 NAtoms=   12 NActive=   12 NUniq=   12 SFac= 1.00D+00 NAtFMM=   60 NAOKFM=F Big=F
 Integral buffers will be    131072 words long.
 Raffenetti 2 integral format.
 Two-electron integral symmetry is turned on.
 R6Disp:  Grimme-D3 Dispersion energy=       -0.0079146971 Hartrees.
 Nuclear repulsion after empirical dispersion term =      155.2725594442 Hartrees.
 ------------------------------------------------------------------------------
 Polarizable Continuum Model (PCM)
 =================================
 Model                : PCM.
 Atomic radii         : UFF (Universal Force Field).
 Polarization charges : Total charges.
 Charge compensation  : None.
 Solution method      : On-the-fly selection.
 Cavity type          : Scaled VdW (van der Waals Surface) (Alpha=1.100).
 Cavity algorithm     : GePol (No added spheres)
                        Default sphere list used, NSphG=   12.
                        Lebedev-Laikov grids with approx.  5.0 points / Ang**2.
                        Smoothing algorithm: York/Karplus (Gamma=1.0000).
                        Polarization charges: spherical gaussians, with
                                              point-specific exponents (IZeta= 3).
                        Self-potential: point-specific (ISelfS= 7).
                        Self-field    : sphere-specific E.n sum rule (ISelfD= 2).
 1st derivatives      : Analytical E(r).r(x)/FMM algorithm (CHGder, D1EAlg=3).
                        Cavity 1st derivative terms included.
 Solvent              : Water, Eps=  78.355300 Eps(inf)=   1.777849
 ------------------------------------------------------------------------------
 Spheres list:
 ISph  on   Nord     Re0    Alpha      Xe            Ye            Ze
    1   C      1    1.9255  1.100      2.771190     -0.238604      0.004415
    2   C      2    1.9255  1.100      1.253687     -0.442312     -0.005862
    3   N      3    1.8300  1.100      0.510242      0.847735     -0.001382
    4  Cl      4    1.9735  1.100     -2.352749     -0.161414      0.001280
    5   H      5    1.4430  1.100      3.274966     -1.216236      0.000670
    6   H      6    1.4430  1.100      3.091574      0.309111      0.905721
    7   H      7    1.4430  1.100      3.102058      0.321375     -0.885495
    8   H      8    1.4430  1.100      0.929995     -1.012705      0.877947
    9   H      9    1.4430  1.100      0.940408     -1.000525     -0.901126
   10   H     10    1.4430  1.100     -0.543945      0.672231     -0.008755
   11   H     11    1.4430  1.100      0.735487      1.405370      0.836687
   12   H     12    1.4430  1.100      0.745237      1.416774     -0.829044
 ------------------------------------------------------------------------------
 GePol: Number of generator spheres                  =      12
 GePol: Total number of spheres                      =      12
 GePol: Number of exposed spheres                    =      12 (100.00%)
 GePol: Number of points                             =    1098
 GePol: Average weight of points                     =       0.14
 GePol: Minimum weight of points                     =   0.79D-07
 GePol: Maximum weight of points                     =    0.21616
 GePol: Number of points with low weight             =      57
 GePol: Fraction of low-weight points (<1% of avg)   =       5.19%
 GePol: Cavity surface area                          =    156.383 Ang**2
 GePol: Cavity volume                                =    136.362 Ang**3
 Leave Link  301 at Sat Aug 21 09:33:22 2021, MaxMem=   104857600 cpu:               1.3 elap:               0.1
 (Enter /sw/arch/RedHatEnterpriseServer7/EB_production/2020/software/Gaussian/g16.c01/l302.exe)
 NPDir=0 NMtPBC=     1 NCelOv=     1 NCel=       1 NClECP=     1 NCelD=      1
         NCelK=      1 NCelE2=     1 NClLst=     1 CellRange=     0.0.
 One-electron integrals computed using PRISM.
 One-electron integral symmetry used in STVInt
 NBasis=   127 RedAO= T EigKep=  5.33D-04  NBF=   127
 NBsUse=   127 1.00D-06 EigRej= -1.00D+00 NBFU=   127
 Precomputing XC quadrature grid using
 IXCGrd= 4 IRadAn=           5 IRanWt=          -1 IRanGd=           0 AccXCQ= 0.00D+00.
 Generated NRdTot=       0 NPtTot=           0 NUsed=           0 NTot=          32
 NSgBfM=   130   130   130   130   130 MxSgAt=    12 MxSgA2=    12.
 Leave Link  302 at Sat Aug 21 09:33:22 2021, MaxMem=   104857600 cpu:               3.1 elap:               0.2
 (Enter /sw/arch/RedHatEnterpriseServer7/EB_production/2020/software/Gaussian/g16.c01/l303.exe)
 DipDrv:  MaxL=1.
 Leave Link  303 at Sat Aug 21 09:33:22 2021, MaxMem=   104857600 cpu:               0.9 elap:               0.1
 (Enter /sw/arch/RedHatEnterpriseServer7/EB_production/2020/software/Gaussian/g16.c01/l401.exe)
 Initial guess from the checkpoint file:  "XWBDWHCCBGMXKG-UHFFFAOYSA-N.chk"
 B after Tr=    -0.000000    0.000000   -0.000000
         Rot=    0.999989   -0.002088    0.000117    0.004176 Ang=  -0.54 deg.
 Guess basis will be translated and rotated to current coordinates.
 JPrj=2 DoOrth=T DoCkMO=T.
 Generating alternative initial guess.
 ExpMin= 9.52D-02 ExpMax= 6.95D+04 ExpMxC= 2.37D+03 IAcc=3 IRadAn=         5 AccDes= 0.00D+00
 Harris functional with IExCor=  404 and IRadAn=       5 diagonalized for initial guess.
 HarFok:  IExCor=  404 AccDes= 0.00D+00 IRadAn=         5 IDoV= 1 UseB2=F ITyADJ=14
 ICtDFT=  3500011 ScaDFX=  1.000000  1.000000  1.000000  1.000000
 FoFCou: FMM=F IPFlag=           0 FMFlag=      100000 FMFlg1=           0
         NFxFlg=           0 DoJE=T BraDBF=F KetDBF=T FulRan=T
         wScrn=  0.000000 ICntrl=       500 IOpCl=  0 I1Cent=   200000004 NGrid=           0
         NMat0=    1 NMatS0=      1 NMatT0=    0 NMatD0=    1 NMtDS0=    0 NMtDT0=    0
 Petite list used in FoFCou.
 Harris En= -596.129846075131    
 Leave Link  401 at Sat Aug 21 09:33:23 2021, MaxMem=   104857600 cpu:               6.8 elap:               0.3
 (Enter /sw/arch/RedHatEnterpriseServer7/EB_production/2020/software/Gaussian/g16.c01/l502.exe)
 Keep J ints in memory in canonical form, NReq=55982632.
 FoFCou: FMM=F IPFlag=           0 FMFlag=           0 FMFlg1=           0
         NFxFlg=           0 DoJE=F BraDBF=F KetDBF=F FulRan=T
         wScrn=  0.000000 ICntrl=       600 IOpCl=  0 I1Cent=           0 NGrid=           0
         NMat0=    1 NMatS0=   8128 NMatT0=    0 NMatD0=    1 NMtDS0=    0 NMtDT0=    0
 Symmetry not used in FoFCou.
 Two-electron integral symmetry not used.
 Closed shell SCF:
 Using DIIS extrapolation, IDIIS=  1040.
 NGot=   104857600 LenX=    71782082 LenY=    71764480
 Requested convergence on RMS density matrix=1.00D-08 within 128 cycles.
 Requested convergence on MAX density matrix=1.00D-06.
 Requested convergence on             energy=1.00D-06.
 No special actions if energy rises.

 Cycle   1  Pass 1  IDiag  1:
 Inv3:  Mode=1 IEnd=     3616812.
 Iteration    1 A*A^-1 deviation from unit magnitude is 2.89D-15 for    197.
 Iteration    1 A*A^-1 deviation from orthogonality  is 1.88D-15 for    598     93.
 Iteration    1 A^-1*A deviation from unit magnitude is 2.66D-15 for    393.
 Iteration    1 A^-1*A deviation from orthogonality  is 1.89D-15 for    743    270.
 E= -596.129797885335    
 DIIS: error= 5.30D-03 at cycle   1 NSaved=   1.
 NSaved= 1 IEnMin= 1 EnMin= -596.129797885335     IErMin= 1 ErrMin= 5.30D-03
 ErrMax= 5.30D-03  0.00D+00 EMaxC= 1.00D-01 BMatC= 6.05D-03 BMatP= 6.05D-03
 IDIUse=3 WtCom= 9.47D-01 WtEn= 5.30D-02
 Coeff-Com:  0.100D+01
 Coeff-En:   0.100D+01
 Coeff:      0.100D+01
 Gap=     0.475 Goal=   None    Shift=    0.000
 GapD=    0.475 DampG=2.000 DampE=1.000 DampFc=2.0000 IDamp=-1.
 RMSDP=1.19D-03 MaxDP=2.36D-02              OVMax= 3.45D-02

 Cycle   2  Pass 1  IDiag  1:
 E= -596.138471174444     Delta-E=       -0.008673289109 Rises=F Damp=F
 DIIS: error= 7.72D-04 at cycle   2 NSaved=   2.
 NSaved= 2 IEnMin= 2 EnMin= -596.138471174444     IErMin= 2 ErrMin= 7.72D-04
 ErrMax= 7.72D-04  0.00D+00 EMaxC= 1.00D-01 BMatC= 8.10D-05 BMatP= 6.05D-03
 IDIUse=3 WtCom= 9.92D-01 WtEn= 7.72D-03
 Coeff-Com:  0.266D-01 0.973D+00
 Coeff-En:   0.000D+00 0.100D+01
 Coeff:      0.264D-01 0.974D+00
 Gap=     0.218 Goal=   None    Shift=    0.000
 RMSDP=1.05D-04 MaxDP=1.88D-03 DE=-8.67D-03 OVMax= 3.50D-03

 Cycle   3  Pass 1  IDiag  1:
 E= -596.138487876657     Delta-E=       -0.000016702213 Rises=F Damp=F
 DIIS: error= 6.77D-04 at cycle   3 NSaved=   3.
 NSaved= 3 IEnMin= 3 EnMin= -596.138487876657     IErMin= 3 ErrMin= 6.77D-04
 ErrMax= 6.77D-04  0.00D+00 EMaxC= 1.00D-01 BMatC= 6.52D-05 BMatP= 8.10D-05
 IDIUse=3 WtCom= 9.93D-01 WtEn= 6.77D-03
 Coeff-Com:  0.188D-02 0.471D+00 0.527D+00
 Coeff-En:   0.000D+00 0.428D+00 0.572D+00
 Coeff:      0.187D-02 0.470D+00 0.528D+00
 Gap=     0.219 Goal=   None    Shift=    0.000
 RMSDP=6.04D-05 MaxDP=1.25D-03 DE=-1.67D-05 OVMax= 2.02D-03

 Cycle   4  Pass 1  IDiag  1:
 E= -596.138538544673     Delta-E=       -0.000050668016 Rises=F Damp=F
 DIIS: error= 2.47D-04 at cycle   4 NSaved=   4.
 NSaved= 4 IEnMin= 4 EnMin= -596.138538544673     IErMin= 4 ErrMin= 2.47D-04
 ErrMax= 2.47D-04  0.00D+00 EMaxC= 1.00D-01 BMatC= 8.83D-06 BMatP= 6.52D-05
 IDIUse=3 WtCom= 9.98D-01 WtEn= 2.47D-03
 Coeff-Com: -0.474D-03 0.188D+00 0.315D+00 0.497D+00
 Coeff-En:   0.000D+00 0.000D+00 0.709D-01 0.929D+00
 Coeff:     -0.473D-03 0.188D+00 0.315D+00 0.498D+00
 Gap=     0.218 Goal=   None    Shift=    0.000
 RMSDP=1.64D-05 MaxDP=3.18D-04 DE=-5.07D-05 OVMax= 5.75D-04

 Cycle   5  Pass 1  IDiag  1:
 E= -596.138546214960     Delta-E=       -0.000007670287 Rises=F Damp=F
 DIIS: error= 3.95D-05 at cycle   5 NSaved=   5.
 NSaved= 5 IEnMin= 5 EnMin= -596.138546214960     IErMin= 5 ErrMin= 3.95D-05
 ErrMax= 3.95D-05  0.00D+00 EMaxC= 1.00D-01 BMatC= 1.52D-07 BMatP= 8.83D-06
 IDIUse=1 WtCom= 1.00D+00 WtEn= 0.00D+00
 Coeff-Com: -0.271D-03 0.702D-01 0.127D+00 0.221D+00 0.582D+00
 Coeff:     -0.271D-03 0.702D-01 0.127D+00 0.221D+00 0.582D+00
 Gap=     0.218 Goal=   None    Shift=    0.000
 RMSDP=2.65D-06 MaxDP=5.22D-05 DE=-7.67D-06 OVMax= 8.96D-05

 Cycle   6  Pass 1  IDiag  1:
 E= -596.138546324132     Delta-E=       -0.000000109172 Rises=F Damp=F
 DIIS: error= 1.52D-05 at cycle   6 NSaved=   6.
 NSaved= 6 IEnMin= 6 EnMin= -596.138546324132     IErMin= 6 ErrMin= 1.52D-05
 ErrMax= 1.52D-05  0.00D+00 EMaxC= 1.00D-01 BMatC= 2.44D-08 BMatP= 1.52D-07
 IDIUse=1 WtCom= 1.00D+00 WtEn= 0.00D+00
 Coeff-Com: -0.859D-04 0.187D-01 0.368D-01 0.687D-01 0.325D+00 0.551D+00
 Coeff:     -0.859D-04 0.187D-01 0.368D-01 0.687D-01 0.325D+00 0.551D+00
 Gap=     0.218 Goal=   None    Shift=    0.000
 RMSDP=7.85D-07 MaxDP=1.56D-05 DE=-1.09D-07 OVMax= 4.00D-05

 Cycle   7  Pass 1  IDiag  1:
 E= -596.138546344518     Delta-E=       -0.000000020386 Rises=F Damp=F
 DIIS: error= 1.80D-06 at cycle   7 NSaved=   7.
 NSaved= 7 IEnMin= 7 EnMin= -596.138546344518     IErMin= 7 ErrMin= 1.80D-06
 ErrMax= 1.80D-06  0.00D+00 EMaxC= 1.00D-01 BMatC= 5.11D-10 BMatP= 2.44D-08
 IDIUse=1 WtCom= 1.00D+00 WtEn= 0.00D+00
 Coeff-Com: -0.183D-04 0.289D-02 0.612D-02 0.130D-01 0.850D-01 0.207D+00
 Coeff-Com:  0.686D+00
 Coeff:     -0.183D-04 0.289D-02 0.612D-02 0.130D-01 0.850D-01 0.207D+00
 Coeff:      0.686D+00
 Gap=     0.218 Goal=   None    Shift=    0.000
 RMSDP=2.26D-07 MaxDP=5.70D-06 DE=-2.04D-08 OVMax= 6.27D-06

 Cycle   8  Pass 1  IDiag  1:
 E= -596.138546344979     Delta-E=       -0.000000000461 Rises=F Damp=F
 DIIS: error= 7.63D-07 at cycle   8 NSaved=   8.
 NSaved= 8 IEnMin= 8 EnMin= -596.138546344979     IErMin= 8 ErrMin= 7.63D-07
 ErrMax= 7.63D-07  0.00D+00 EMaxC= 1.00D-01 BMatC= 4.62D-11 BMatP= 5.11D-10
 IDIUse=1 WtCom= 1.00D+00 WtEn= 0.00D+00
 Coeff-Com: -0.594D-05 0.707D-03 0.155D-02 0.373D-02 0.279D-01 0.782D-01
 Coeff-Com:  0.333D+00 0.555D+00
 Coeff:     -0.594D-05 0.707D-03 0.155D-02 0.373D-02 0.279D-01 0.782D-01
 Coeff:      0.333D+00 0.555D+00
 Gap=     0.218 Goal=   None    Shift=    0.000
 RMSDP=7.72D-08 MaxDP=2.79D-06 DE=-4.61D-10 OVMax= 2.24D-06

 Cycle   9  Pass 1  IDiag  1:
 E= -596.138546345020     Delta-E=       -0.000000000040 Rises=F Damp=F
 DIIS: error= 1.37D-07 at cycle   9 NSaved=   9.
 NSaved= 9 IEnMin= 9 EnMin= -596.138546345020     IErMin= 9 ErrMin= 1.37D-07
 ErrMax= 1.37D-07  0.00D+00 EMaxC= 1.00D-01 BMatC= 1.94D-12 BMatP= 4.62D-11
 IDIUse=1 WtCom= 1.00D+00 WtEn= 0.00D+00
 Coeff-Com: -0.683D-06 0.100D-04 0.469D-04 0.308D-03 0.355D-02 0.135D-01
 Coeff-Com:  0.757D-01 0.221D+00 0.686D+00
 Coeff:     -0.683D-06 0.100D-04 0.469D-04 0.308D-03 0.355D-02 0.135D-01
 Coeff:      0.757D-01 0.221D+00 0.686D+00
 Gap=     0.218 Goal=   None    Shift=    0.000
 RMSDP=1.46D-08 MaxDP=4.38D-07 DE=-4.05D-11 OVMax= 5.07D-07

 Cycle  10  Pass 1  IDiag  1:
 E= -596.138546345022     Delta-E=       -0.000000000002 Rises=F Damp=F
 DIIS: error= 1.73D-08 at cycle  10 NSaved=  10.
 NSaved=10 IEnMin=10 EnMin= -596.138546345022     IErMin=10 ErrMin= 1.73D-08
 ErrMax= 1.73D-08  0.00D+00 EMaxC= 1.00D-01 BMatC= 3.77D-14 BMatP= 1.94D-12
 IDIUse=1 WtCom= 1.00D+00 WtEn= 0.00D+00
 Coeff-Com: -0.139D-07-0.183D-04-0.292D-04-0.278D-04 0.243D-03 0.168D-02
 Coeff-Com:  0.123D-01 0.468D-01 0.205D+00 0.734D+00
 Coeff:     -0.139D-07-0.183D-04-0.292D-04-0.278D-04 0.243D-03 0.168D-02
 Coeff:      0.123D-01 0.468D-01 0.205D+00 0.734D+00
 Gap=     0.218 Goal=   None    Shift=    0.000
 RMSDP=2.62D-09 MaxDP=5.80D-08 DE=-2.39D-12 OVMax= 6.53D-08

 Error on total polarization charges =  0.01425
 SCF Done:  E(RB-P86) =  -596.138546345     A.U. after   10 cycles
            NFock= 10  Conv=0.26D-08     -V/T= 2.0036
 KE= 5.940107752629D+02 PE=-1.720093252919D+03 EE= 3.746713718667D+02
 Leave Link  502 at Sat Aug 21 09:33:26 2021, MaxMem=   104857600 cpu:              76.0 elap:               3.6
 (Enter /sw/arch/RedHatEnterpriseServer7/EB_production/2020/software/Gaussian/g16.c01/l701.exe)
 ... and contract with generalized density number  0.
 Compute integral first derivatives.
 R6Disp: Adding Grimme-D3 dispersion energy 1st derivatives to the gradient.
 D1PCM: PCM CHGder 1st derivatives, ID1Alg=3 FixD1E=F DoIter=F DoCFld=F I1PDM=0.
 GePol: Maximum number of non-zero 1st derivatives   =     296
 Leave Link  701 at Sat Aug 21 09:33:27 2021, MaxMem=   104857600 cpu:              13.2 elap:               0.6
 (Enter /sw/arch/RedHatEnterpriseServer7/EB_production/2020/software/Gaussian/g16.c01/l702.exe)
 L702 exits ... SP integral derivatives will be done elsewhere.
 Leave Link  702 at Sat Aug 21 09:33:27 2021, MaxMem=   104857600 cpu:               0.3 elap:               0.0
 (Enter /sw/arch/RedHatEnterpriseServer7/EB_production/2020/software/Gaussian/g16.c01/l703.exe)
 Integral derivatives from FoFJK, PRISM(SPDF).
 Compute integral first derivatives, UseDBF=F ICtDFT=           0.
 Calling FoFJK, ICntrl=      2527 FMM=F ISym2X=0 I1Cent= 0 IOpClX= 0 NMat=1 NMatS=1 NMatT=0.
 FoFJK:  IHMeth= 1 ICntrl=    2527 DoSepK=F KAlg= 0 I1Cent=           0 FoldK=F
 IRaf=         0 NMat=       1 IRICut=       1 DoRegI=T DoRafI=F ISym2E= 0 IDoP0=0 IntGTp=1.
 FoFCou: FMM=F IPFlag=           0 FMFlag=      100000 FMFlg1=         800
         NFxFlg=           0 DoJE=F BraDBF=F KetDBF=F FulRan=T
         wScrn=  0.000000 ICntrl=      2527 IOpCl=  0 I1Cent=           0 NGrid=           0
         NMat0=    1 NMatS0=      1 NMatT0=    0 NMatD0=    1 NMtDS0=    0 NMtDT0=    0
 Symmetry not used in FoFCou.
 Leave Link  703 at Sat Aug 21 09:33:28 2021, MaxMem=   104857600 cpu:              11.9 elap:               0.5
 (Enter /sw/arch/RedHatEnterpriseServer7/EB_production/2020/software/Gaussian/g16.c01/l716.exe)
 Dipole        = 4.90977270D+00 1.41119536D+00-3.43829259D-03
 ***** Axes restored to original set *****
 -------------------------------------------------------------------
 Center     Atomic                   Forces (Hartrees/Bohr)
 Number     Number              X              Y              Z
 -------------------------------------------------------------------
      1        6          -0.002346744    0.000844048   -0.002728536
      2        6           0.008365691   -0.002096399    0.011610879
      3        7           0.001385347   -0.006463239   -0.008993877
      4       17           0.000324567   -0.001059902   -0.001169785
      5        1          -0.000842193    0.000440547   -0.000725634
      6        1          -0.000633558   -0.000524249    0.001035870
      7        1           0.000863283    0.001000713    0.000236516
      8        1          -0.002381320   -0.000747153   -0.001611150
      9        1          -0.000411423    0.001242380   -0.002648040
     10        1          -0.004147215    0.006768975    0.004239713
     11        1          -0.001677698   -0.001268414    0.001229525
     12        1           0.001501263    0.001862692   -0.000475482
 -------------------------------------------------------------------
 Cartesian Forces:  Max     0.011610879 RMS     0.003595700
 Leave Link  716 at Sat Aug 21 09:33:28 2021, MaxMem=   104857600 cpu:               0.4 elap:               0.0
 (Enter /sw/arch/RedHatEnterpriseServer7/EB_production/2020/software/Gaussian/g16.c01/l103.exe)

 GradGradGradGradGradGradGradGradGradGradGradGradGradGradGradGradGradGrad
 Berny optimization.
 Using GEDIIS/GDIIS optimizer.
 FormGI is forming the generalized inverse of G from B-inverse, IUseBI=4.
 Internal  Forces:  Max     0.006863087 RMS     0.001770334
 Search for a local minimum.
 Step number   2 out of a maximum of   59
 All quantities printed in internal units (Hartrees-Bohrs-Radians)
 RMS Force = .17703D-02 SwitMx=.10000D-02 MixMth= 1
 Mixed Optimization -- RFO/linear search
 Update second derivatives using D2CorX and points    1    2
 DE= -3.26D-03 DEPred=-3.82D-03 R= 8.53D-01
 TightC=F SS=  1.41D+00  RLast= 3.09D-01 DXNew= 5.0454D-01 9.2682D-01
 Trust test= 8.53D-01 RLast= 3.09D-01 DXMaxT set to 5.05D-01
 ITU=  1  0
 Use linear search instead of GDIIS.
     Eigenvalues ---    0.00230   0.00407   0.00410   0.00868   0.03827
     Eigenvalues ---    0.05004   0.05500   0.05632   0.05721   0.05859
     Eigenvalues ---    0.05895   0.07396   0.12189   0.15430   0.16000
     Eigenvalues ---    0.16000   0.16000   0.16000   0.16721   0.22249
     Eigenvalues ---    0.27874   0.30908   0.32355   0.32466   0.32530
     Eigenvalues ---    0.32576   0.34086   0.38709   0.40436   0.40692
 RFO step:  Lambda=-3.89146132D-03 EMin= 2.29915785D-03
 Quartic linear search produced a step of  0.04015.
 Maximum step size (   0.505) exceeded in Quadratic search.
    -- Step size scaled by   0.793
 Iteration  1 RMS(Cart)=  0.10228191 RMS(Int)=  0.03961163
 Iteration  2 RMS(Cart)=  0.08253334 RMS(Int)=  0.01201252
 Iteration  3 RMS(Cart)=  0.02782008 RMS(Int)=  0.00090516
 Iteration  4 RMS(Cart)=  0.00087884 RMS(Int)=  0.00039643
 Iteration  5 RMS(Cart)=  0.00000037 RMS(Int)=  0.00039643
 ITry= 1 IFail=0 DXMaxC= 8.96D-01 DCOld= 1.00D+10 DXMaxT= 5.05D-01 DXLimC= 3.00D+00 Rises=F
 Variable       Old X    -DE/DX   Delta X   Delta X   Delta X     New X
                                 (Linear)    (Quad)   (Total)
    R1        2.89345  -0.00333   0.00030  -0.00468  -0.00438   2.88908
    R2        2.07833  -0.00103  -0.00080  -0.01672  -0.01753   2.06080
    R3        2.08298  -0.00127  -0.00064  -0.01452  -0.01516   2.06782
    R4        2.08298  -0.00129  -0.00064  -0.01457  -0.01520   2.06778
    R5        2.81370   0.00580   0.00202   0.04924   0.05126   2.86496
    R6        2.07977  -0.00188  -0.00089  -0.02064  -0.02153   2.05823
    R7        2.07977  -0.00188  -0.00089  -0.02064  -0.02153   2.05823
    R8        2.01959   0.00686   0.00176   0.04565   0.04741   2.06700
    R9        1.94931  -0.00222  -0.00110  -0.02401  -0.02511   1.92420
   R10        1.94931  -0.00220  -0.00110  -0.02395  -0.02505   1.92426
   R11        3.76375  -0.00133  -0.00063  -0.02968  -0.03031   3.73345
    A1        1.91313  -0.00112   0.00001  -0.00701  -0.00696   1.90618
    A2        1.93871   0.00064   0.00060   0.01411   0.01462   1.95333
    A3        1.93871   0.00066   0.00060   0.01427   0.01478   1.95349
    A4        1.88741   0.00012  -0.00042  -0.00756  -0.00794   1.87946
    A5        1.88741   0.00011  -0.00042  -0.00754  -0.00792   1.87948
    A6        1.89702  -0.00043  -0.00040  -0.00740  -0.00799   1.88903
    A7        1.96013  -0.00111   0.00087   0.00899   0.01021   1.97034
    A8        1.93377   0.00164   0.00115   0.03340   0.03443   1.96820
    A9        1.93377   0.00164   0.00115   0.03367   0.03470   1.96847
   A10        1.87525  -0.00105  -0.00150  -0.03909  -0.04093   1.83432
   A11        1.87525  -0.00102  -0.00150  -0.03863  -0.04048   1.83477
   A12        1.88247  -0.00022  -0.00027  -0.00279  -0.00534   1.87713
   A13        1.92860  -0.00191   0.00100   0.00659   0.00744   1.93604
   A14        1.94099   0.00088   0.00080   0.01810   0.01881   1.95980
   A15        1.94099   0.00087   0.00080   0.01838   0.01908   1.96006
   A16        1.88575   0.00057  -0.00060  -0.00745  -0.00818   1.87757
   A17        1.88575   0.00066  -0.00060  -0.00629  -0.00704   1.87871
   A18        1.87960  -0.00105  -0.00148  -0.03154  -0.03307   1.84654
   A19        2.89209   0.00338  -0.01002   0.46489   0.45487   3.34697
   A20        3.24525  -0.00111   0.00416  -0.14994  -0.14578   3.09946
    D1       -3.14159  -0.00002  -0.00000  -0.00039  -0.00039   3.14120
    D2        1.04440   0.00094   0.00054   0.02017   0.02092   1.06532
    D3       -1.04440  -0.00093  -0.00054  -0.02017  -0.02092  -1.06532
    D4        1.05687   0.00016   0.00014   0.00467   0.00487   1.06174
    D5       -1.04032   0.00111   0.00068   0.02522   0.02618  -1.01415
    D6       -3.12911  -0.00075  -0.00040  -0.01512  -0.01567   3.13840
    D7       -1.05687  -0.00019  -0.00014  -0.00531  -0.00552  -1.06239
    D8        3.12912   0.00077   0.00040   0.01524   0.01579  -3.13828
    D9        1.04032  -0.00110  -0.00068  -0.02510  -0.02605   1.01427
   D10        3.14159   0.00005   0.00000   0.00123   0.00123  -3.14036
   D11       -1.04737   0.00007   0.00040   0.00812   0.00854  -1.03883
   D12        1.04737  -0.00008  -0.00040  -0.00728  -0.00771   1.03966
   D13       -1.01079   0.00069   0.00098   0.02200   0.02246  -0.98833
   D14        1.08343   0.00071   0.00139   0.02889   0.02977   1.11320
   D15       -3.10501   0.00056   0.00058   0.01350   0.01352  -3.09149
   D16        1.01079  -0.00061  -0.00098  -0.02019  -0.02064   0.99015
   D17        3.10501  -0.00059  -0.00058  -0.01330  -0.01333   3.09168
   D18       -1.08343  -0.00074  -0.00139  -0.02870  -0.02958  -1.11301
         Item               Value     Threshold  Converged?
 Maximum Force            0.006863     0.000450     NO 
 RMS     Force            0.001770     0.000300     NO 
 Maximum Displacement     0.895640     0.001800     NO 
 RMS     Displacement     0.194554     0.001200     NO 
 Predicted change in Energy=-2.356603D-03
 Lowest energy point so far.  Saving SCF results.
 GradGradGradGradGradGradGradGradGradGradGradGradGradGradGradGradGradGrad

 Leave Link  103 at Sat Aug 21 09:33:28 2021, MaxMem=   104857600 cpu:               0.6 elap:               0.1
 (Enter /sw/arch/RedHatEnterpriseServer7/EB_production/2020/software/Gaussian/g16.c01/l202.exe)
                          Input orientation:                          
 ---------------------------------------------------------------------
 Center     Atomic      Atomic             Coordinates (Angstroms)
 Number     Number       Type             X           Y           Z
 ---------------------------------------------------------------------
      1          6           0        1.172525   -0.866502    0.305880
      2          6           0        0.132124    0.246563    0.432317
      3          7           0       -0.703625    0.417768   -0.820952
      4         17           0       -2.934387    2.503801   -0.799262
      5          1           0        1.737347   -0.937212    1.236058
      6          1           0        1.884694   -0.670147   -0.501356
      7          1           0        0.708639   -1.840648    0.123768
      8          1           0        0.579495    1.223471    0.610641
      9          1           0       -0.586342    0.063727    1.230233
     10          1           0       -1.435047    1.221408   -0.696027
     11          1           0       -0.136041    0.642508   -1.635912
     12          1           0       -1.214149   -0.429182   -1.063684
 ---------------------------------------------------------------------
                    Distance matrix (angstroms):
                    1          2          3          4          5
     1  C    0.000000
     2  C    1.528834   0.000000
     3  N    2.537526   1.516071   0.000000
     4  Cl   5.426510   4.001925   3.054227   0.000000
     5  H    1.090530   2.150363   3.467796   6.148837   0.000000
     6  H    1.094244   2.187145   2.825791   5.778082   1.763985
     7  H    1.094220   2.187240   2.826204   5.744376   1.763980
     8  H    2.193753   1.089170   2.084469   3.996803   2.529886
     9  H    2.193938   1.089170   2.084816   3.947927   2.530107
    10  H    3.487494   2.163217   1.093810   1.975654   4.296123
    11  H    2.785679   2.122794   1.018243   3.463400   3.775355
    12  H    2.786246   2.122994   1.018272   3.410502   3.776008
                    6          7          8          9         10
     6  H    0.000000
     7  H    1.773122   0.000000
     8  H    2.554578   3.105246   0.000000
     9  H    3.105316   2.554972   1.757292   0.000000
    10  H    3.825775   3.826701   2.401200   2.402291   0.000000
    11  H    2.663390   3.158484   2.428273   2.958470   1.704678
    12  H    3.158656   2.664469   2.958342   2.428818   1.705408
                   11         12
    11  H    0.000000
    12  H    1.624279   0.000000
 Stoichiometry    C2H8ClN
 Framework group  C1[X(C2H8ClN)]
 Deg. of freedom    30
 Full point group                 C1      NOp   1
 RotChk:  IX=2 Diff= 1.67D-01
 Largest Abelian subgroup         C1      NOp   1
 Largest concise Abelian subgroup C1      NOp   1
                         Standard orientation:                         
 ---------------------------------------------------------------------
 Center     Atomic      Atomic             Coordinates (Angstroms)
 Number     Number       Type             X           Y           Z
 ---------------------------------------------------------------------
      1          6           0        2.921616   -0.027806   -0.023775
      2          6           0        1.475068   -0.520426    0.022667
[...]
 ! D7    D(7,1,2,3)            -60.7357                                         !
 ! D8    D(7,1,2,8)           -179.9611                                         !
 ! D9    D(7,1,2,9)             58.4996                                         !
 ! D10   D(1,2,3,10)          -179.9181                                         !
 ! D11   D(1,2,3,11)           -59.8859                                         !
 ! D12   D(1,2,3,12)            60.0295                                         !
 ! D13   D(8,2,3,10)           -57.341                                          !
 ! D14   D(8,2,3,11)            62.6912                                         !
 ! D15   D(8,2,3,12)          -177.3934                                         !
 ! D16   D(9,2,3,10)            57.4954                                         !
 ! D17   D(9,2,3,11)           177.5277                                         !
 ! D18   D(9,2,3,12)           -62.5569                                         !
 --------------------------------------------------------------------------------
                          Input orientation:                          
 ---------------------------------------------------------------------
 Center     Atomic      Atomic             Coordinates (Angstroms)
 Number     Number       Type             X           Y           Z
 ---------------------------------------------------------------------
      1          6           0        1.148503   -0.818314    0.326969
      2          6           0        0.077452    0.261004    0.385133
      3          7           0       -0.704125    0.352889   -0.898098
      4         17           0       -2.710166    2.548960   -0.472112
      5          1           0        1.689501   -0.846404    1.282928
      6          1           0        1.878559   -0.615750   -0.470665
      7          1           0        0.707551   -1.811718    0.156902
      8          1           0        0.506755    1.257206    0.553927
      9          1           0       -0.657223    0.068633    1.177870
     10          1           0       -1.459195    1.138152   -0.814854
     11          1           0       -0.092805    0.573957   -1.694397
     12          1           0       -1.179573   -0.533060   -1.111898
 ---------------------------------------------------------------------
                    Distance matrix (angstroms):
                    1          2          3          4          5
     1  C    0.000000
     2  C    1.521664   0.000000
     3  N    2.510923   1.505320   0.000000
     4  Cl   5.183280   3.706808   3.004729   0.000000
     5  H    1.098784   2.151997   3.453204   5.828013   0.000000
     6  H    1.100106   2.178319   2.791275   5.574208   1.778773
     7  H    1.100097   2.178369   2.791304   5.576017   1.778761
     8  H    2.184292   1.097820   2.095804   3.615241   2.521012
     9  H    2.184343   1.097809   2.095864   3.617878   2.521000
    10  H    3.454216   2.137906   1.092565   1.916450   4.272404
    11  H    2.750488   2.109828   1.027947   3.499314   3.749468
    12  H    2.751662   2.109918   1.027943   3.500127   3.750329
                    6          7          8          9         10
     6  H    0.000000
     7  H    1.787579   0.000000
     8  H    2.537636   3.101006   0.000000
     9  H    3.101005   2.537854   1.776754   0.000000
    10  H    3.786191   3.786929   2.398478   2.399579   0.000000
    11  H    2.607528   3.123992   2.425132   2.970495   1.720155
    12  H    3.125730   2.608842   2.970476   2.424443   1.720283
                   11         12
    11  H    0.000000
    12  H    1.657063   0.000000
 Stoichiometry    C2H8ClN
 Framework group  C1[X(C2H8ClN)]
 Deg. of freedom    30
 Full point group                 C1      NOp   1
 Largest Abelian subgroup         C1      NOp   1
 Largest concise Abelian subgroup C1      NOp   1
                         Standard orientation:                         
 ---------------------------------------------------------------------
 Center     Atomic      Atomic             Coordinates (Angstroms)
 Number     Number       Type             X           Y           Z
 ---------------------------------------------------------------------
      1          6           0        2.805005   -0.169834    0.000987
      2          6           0        1.313914   -0.473320   -0.001228
      3          7           0        0.480863    0.780479   -0.000429
      4         17           0       -2.378209   -0.143699    0.000292
      5          1           0        3.368624   -1.113052    0.000291
      6          1           0        3.096685    0.399504    0.895978
      7          1           0        3.098886    0.402128   -0.891597
      8          1           0        1.009357   -1.043603    0.886033
      9          1           0        1.011426   -1.041205   -0.890718
     10          1           0       -0.579885    0.518730   -0.000601
     11          1           0        0.672379    1.357315    0.828580
     12          1           0        0.672535    1.358629   -0.828482
 ---------------------------------------------------------------------
 Rotational constants (GHZ):          20.5451922           1.4348388           1.3746235
 Standard basis: TZVP (5D, 7F)
 There are   131 symmetry adapted cartesian basis functions of A   symmetry.
 There are   127 symmetry adapted basis functions of A   symmetry.
   127 basis functions,   216 primitive gaussians,   131 cartesian basis functions
    22 alpha electrons       22 beta electrons
       nuclear repulsion energy       154.9397784217 Hartrees.
 NAtoms=   12 NActive=   12 NUniq=   12 SFac= 1.00D+00 NAtFMM=   60 NAOKFM=F Big=F
 Integral buffers will be    131072 words long.
 Raffenetti 2 integral format.
 Two-electron integral symmetry is turned on.
 Warning! Using old PCM defaults because the COSMOthermo output has been requested.
 These settings can be overridden by following keywords.
 ------------------------------------------------------------------------------
 Polarizable Continuum Model (PCM)
 =================================
 Model                : C-PCM.
 Atomic radii         : Klamt.
 XCosmo               : -1.000 (infinite dielectric limit)
 Polarization charges : Electronic and nuclear charges.
 Charge compensation  : Type 3 (Electronic density weighted correction).
 Solution method      : On-the-fly selection.
 Cavity type          : VdW (van der Waals Surface) (Alpha=1.000).
 Cavity algorithm     : GePol (No added spheres)
                        Default sphere list used, NSphG=   12.
                        Tesserae with average area of 0.200 Ang**2.
                        Smoothing algorithm: None.
                        Polarization charges: point-like.
                        Self-potential: constant (ISelfS= 1).
                        Self-field    : global E.n sum rule (ISelfD= 3).
 Solvent              : Water, Eps=  78.355300 Eps(inf)=   1.777849
 ------------------------------------------------------------------------------
 Spheres list:
 ISph  on   Nord     Re0    Alpha      Xe            Ye            Ze
    1   C      1    2.0000  1.000      2.805005     -0.169834      0.000987
    2   C      2    2.0000  1.000      1.313914     -0.473320     -0.001228
    3   N      3    1.8300  1.000      0.480863      0.780479     -0.000429
    4  Cl      4    2.0500  1.000     -2.378209     -0.143699      0.000292
    5   H      5    1.3000  1.000      3.368624     -1.113052      0.000291
    6   H      6    1.3000  1.000      3.096685      0.399504      0.895978
    7   H      7    1.3000  1.000      3.098886      0.402128     -0.891597
    8   H      8    1.3000  1.000      1.009357     -1.043603      0.886033
    9   H      9    1.3000  1.000      1.011426     -1.041205     -0.890718
   10   H     10    1.3000  1.000     -0.579885      0.518730     -0.000601
   11   H     11    1.3000  1.000      0.672379      1.357315      0.828580
   12   H     12    1.3000  1.000      0.672535      1.358629     -0.828482
 ------------------------------------------------------------------------------
 One-electron integrals computed using PRISM.
 NBasis=   127 RedAO= T EigKep=  5.20D-04  NBF=   127
 NBsUse=   127 1.00D-06 EigRej= -1.00D+00 NBFU=   127
 Initial guess from the checkpoint file:  "XWBDWHCCBGMXKG-UHFFFAOYSA-N.chk"
 B after Tr=     0.000000    0.000000   -0.000000
         Rot=    1.000000    0.000000   -0.000000    0.000000 Ang=   0.00 deg.
 Keep J ints in memory in canonical form, NReq=55982632.
 Requested convergence on RMS density matrix=1.00D-08 within 128 cycles.
 Requested convergence on MAX density matrix=1.00D-06.
 Requested convergence on             energy=1.00D-06.
 No special actions if energy rises.
 Inv3:  Mode=1 IEnd=     2376300.
 Iteration    1 A*A^-1 deviation from unit magnitude is 6.55D-15 for    739.
 Iteration    1 A*A^-1 deviation from orthogonality  is 6.11D-15 for    739     52.
 Iteration    1 A^-1*A deviation from unit magnitude is 8.77D-15 for    739.
 Iteration    1 A^-1*A deviation from orthogonality  is 8.71D-15 for    739     52.
 Error on nuclear    polarization charges =  0.01986
 Error on electronic polarization charges = -0.04977
 SCF Done:  E(RB-P86) =  -596.143000096     A.U. after    9 cycles
            NFock=  9  Conv=0.70D-08     -V/T= 2.0036
 --------------------------------------------------------------------
 Variational C-PCM results
 =========================
 <psi(f)|   H    |psi(f)>                     (a.u.) =    -596.081483
 <psi(f)|H+V(f)/2|psi(f)>                     (a.u.) =    -596.143000
 Total free energy in solution:
 - with all non electrostatic terms           (a.u.) =    -596.133388
 --------------------------------------------------------------------
 (Polarized solute)-Solvent               (kcal/mol) =     -38.60
 --------------------------------------------------------------------
 Cavitation energy                        (kcal/mol) =      17.17
 Dispersion energy                        (kcal/mol) =     -12.30
 Repulsion energy                         (kcal/mol) =       1.16
 Total non electrostatic                  (kcal/mol) =       6.03
 --------------------------------------------------------------------
 Partition over spheres:
 Sphere  on Atom  Surface  Charge   GEl     GCav    GDR
    1      C1      18.73  -0.012   -0.52    2.20   -1.28
    2      C2      12.01  -0.065   -1.25    1.41   -0.44
    3      N3       9.29  -0.125   -3.00    1.13   -0.32
    4     Cl4      46.71   0.692  -20.48    5.44   -3.52
    5      H5       6.52  -0.035   -0.58    0.92   -0.75
    6      H6       6.53  -0.032   -0.74    0.92   -0.72
    7      H7       6.54  -0.032   -0.75    0.92   -0.72
    8      H8       6.51  -0.046   -0.64    0.92   -0.76
    9      H9       6.51  -0.045   -0.63    0.92   -0.76
   10      H10      0.81  -0.012   -0.07    0.11    0.00
   11      H11      8.06  -0.143   -4.94    1.14   -0.95
   12      H12      8.06  -0.144   -5.00    1.14   -0.95
 --------------------------------------------------------------------
 - cavitation energy not included in the total energy.
 - dispersion energy not included in the total energy.
 - repulsion  energy not included in the total energy.
 After PCM corrections, the energy is  -596.143000096     a.u.
 --------------------------------------------------------------------
 Writing COSMO formatted file "XWBDWHCCBGMXKG-UHFFFAOYSA-N.cosmo"
 Recomputed dielectric energy= -0.061637 old= -0.061517 diff=-1.20D-04

 **********************************************************************

            Population analysis using the SCF Density.

 **********************************************************************

 Orbital symmetries:
       Occupied  (A) (A) (A) (A) (A) (A) (A) (A) (A) (A) (A) (A)
                 (A) (A) (A) (A) (A) (A) (A) (A) (A) (A)
       Virtual   (A) (A) (A) (A) (A) (A) (A) (A) (A) (A) (A) (A)
                 (A) (A) (A) (A) (A) (A) (A) (A) (A) (A) (A) (A)
                 (A) (A) (A) (A) (A) (A) (A) (A) (A) (A) (A) (A)
                 (A) (A) (A) (A) (A) (A) (A) (A) (A) (A) (A) (A)
                 (A) (A) (A) (A) (A) (A) (A) (A) (A) (A) (A) (A)
                 (A) (A) (A) (A) (A) (A) (A) (A) (A) (A) (A) (A)
                 (A) (A) (A) (A) (A) (A) (A) (A) (A) (A) (A) (A)
                 (A) (A) (A) (A) (A) (A) (A) (A) (A) (A) (A) (A)
                 (A) (A) (A) (A) (A) (A) (A) (A) (A)
 The electronic state is 1-A.
 Alpha  occ. eigenvalues -- -100.66004 -14.08038  -9.94755  -9.89623  -9.09915
 Alpha  occ. eigenvalues --   -6.91822  -6.91678  -6.91674  -0.88694  -0.69299
 Alpha  occ. eigenvalues --   -0.65412  -0.57897  -0.50555  -0.48290  -0.43479
 Alpha  occ. eigenvalues --   -0.39463  -0.35022  -0.33812  -0.31755  -0.23364
 Alpha  occ. eigenvalues --   -0.22734  -0.22724
 Alpha virt. eigenvalues --    0.01405   0.05149   0.06429   0.07096   0.09022
 Alpha virt. eigenvalues --    0.10413   0.10661   0.12133   0.12836   0.15898
 Alpha virt. eigenvalues --    0.18892   0.21083   0.21192   0.22565   0.25776
 Alpha virt. eigenvalues --    0.29844   0.29934   0.33138   0.35759   0.36886
 Alpha virt. eigenvalues --    0.38339   0.39067   0.39564   0.40406   0.41947
 Alpha virt. eigenvalues --    0.43181   0.45876   0.46099   0.46917   0.48374
 Alpha virt. eigenvalues --    0.55117   0.57490   0.68154   0.74316   0.78489
 Alpha virt. eigenvalues --    0.78802   0.78840   0.80370   0.94683   1.03358
 Alpha virt. eigenvalues --    1.04232   1.17959   1.18736   1.21399   1.22673
 Alpha virt. eigenvalues --    1.24937   1.28804   1.29126   1.34607   1.35480
 Alpha virt. eigenvalues --    1.45592   1.46415   1.46966   1.53060   1.53432
 Alpha virt. eigenvalues --    1.57302   1.61569   1.66610   1.69645   1.71936
 Alpha virt. eigenvalues --    1.72211   1.74521   1.77323   1.80296   1.84059
 Alpha virt. eigenvalues --    1.86357   1.86443   1.91134   1.94870   2.10117
 Alpha virt. eigenvalues --    2.12630   2.16989   2.21975   2.23179   2.24434
 Alpha virt. eigenvalues --    2.25400   2.29847   2.32363   2.36427   2.38926
 Alpha virt. eigenvalues --    2.45789   2.49916   2.51143   2.53198   2.54006
 Alpha virt. eigenvalues --    2.56382   2.59973   2.61708   2.70270   2.76094
 Alpha virt. eigenvalues --    2.76500   2.80330   2.95544   3.07679   3.22842
 Alpha virt. eigenvalues --    3.23733   3.27331   3.27644   3.61057   3.74220
 Alpha virt. eigenvalues --    3.78550  21.64248  21.74916  24.24276  31.34674
          Condensed to atoms (all electrons):
               1          2          3          4          5          6
     1  C    5.057142   0.248311  -0.048681   0.001734   0.401164   0.403242
     2  C    0.248311   5.099347   0.219466   0.001759  -0.037279  -0.033991
     3  N   -0.048681   0.219466   6.261871  -0.105716   0.006895  -0.003469
     4  Cl   0.001734   0.001759  -0.105716  17.774075   0.000031  -0.000012
     5  H    0.401164  -0.037279   0.006895   0.000031   0.511598  -0.021851
     6  H    0.403242  -0.033991  -0.003469  -0.000012  -0.021851   0.533163
     7  H    0.403196  -0.033983  -0.003449  -0.000012  -0.021831  -0.029162
     8  H   -0.028934   0.400652  -0.033222   0.005920  -0.001586  -0.007339
     9  H   -0.028904   0.400706  -0.033176   0.005855  -0.001596   0.006591
    10  H    0.004586  -0.016809   0.279945   0.129749  -0.000284  -0.000097
    11  H   -0.003252  -0.023053   0.350691   0.003741   0.000213   0.004418
    12  H   -0.003247  -0.023005   0.350663   0.003740   0.000212  -0.001112
               7          8          9         10         11         12
     1  C    0.403196  -0.028934  -0.028904   0.004586  -0.003252  -0.003247
     2  C   -0.033983   0.400652   0.400706  -0.016809  -0.023053  -0.023005
     3  N   -0.003449  -0.033222  -0.033176   0.279945   0.350691   0.350663
     4  Cl  -0.000012   0.005920   0.005855   0.129749   0.003741   0.003740
     5  H   -0.021831  -0.001586  -0.001596  -0.000284   0.000213   0.000212
     6  H   -0.029162  -0.007339   0.006591  -0.000097   0.004418  -0.001112
     7  H    0.533199   0.006592  -0.007338  -0.000096  -0.001115   0.004407
     8  H    0.006592   0.513731  -0.030469  -0.004326  -0.005791   0.005922
     9  H   -0.007338  -0.030469   0.513480  -0.004314   0.005920  -0.005804
    10  H   -0.000096  -0.004326  -0.004314   0.402019  -0.008348  -0.008338
    11  H   -0.001115  -0.005791   0.005920  -0.008348   0.380529  -0.015598
    12  H    0.004407   0.005922  -0.005804  -0.008338  -0.015598   0.380379
 Mulliken charges:
               1
     1  C   -0.406356
     2  C   -0.202121
     3  N   -0.241817
     4  Cl  -0.820864
     5  H    0.164314
     6  H    0.149618
     7  H    0.149591
     8  H    0.178849
     9  H    0.179050
    10  H    0.226312
    11  H    0.311644
    12  H    0.311781
 Sum of Mulliken charges =  -0.00000
 Mulliken charges with hydrogens summed into heavy atoms:
               1
     1  C    0.057167
     2  C    0.155778
     3  N    0.607920
     4  Cl  -0.820864
 Electronic spatial extent (au):  <R**2>=            827.7940
 Charge=             -0.0000 electrons
 Dipole moment (field-independent basis, Debye):
    X=             12.4463    Y=              3.4134    Z=             -0.0042  Tot=             12.9059
 Quadrupole moment (field-independent basis, Debye-Ang):
   XX=            -53.5551   YY=            -30.2680   ZZ=            -32.7801
   XY=             -0.5337   XZ=              0.0002   YZ=             -0.0010
 Traceless Quadrupole moment (field-independent basis, Debye-Ang):
   XX=            -14.6874   YY=              8.5998   ZZ=              6.0876
   XY=             -0.5337   XZ=              0.0002   YZ=             -0.0010
 Octapole moment (field-independent basis, Debye-Ang**2):
  XXX=             76.7628  YYY=             10.3543  ZZZ=             -0.0082  XYY=              9.6939
  XXY=              3.8747  XXZ=             -0.0142  XZZ=              7.5998  YZZ=              4.5764
  YYZ=             -0.0089  XYZ=             -0.0005
 Hexadecapole moment (field-independent basis, Debye-Ang**3):
 XXXX=          -1115.7777 YYYY=            -85.1523 ZZZZ=            -54.1055 XXXY=            -11.8591
 XXXZ=             -0.0037 YYYX=              1.3765 YYYZ=             -0.0166 ZZZX=              0.0053
 ZZZY=              0.0087 XXYY=           -178.2828 XXZZ=           -175.5160 YYZZ=            -19.6122
 XXYZ=             -0.0030 YYXZ=             -0.0131 ZZXY=              3.6826
 N-N= 1.549397784217D+02 E-N=-1.719393299077D+03  KE= 5.940201491998D+02
 Unable to Open any file for archive entry.
 1\1\GINC-TCN1395\SP\RBP86\TZVP\C2H8Cl1N1\ELENAA\21-Aug-2021\0\\# BP86/
 TZVP SCRF=COSMORS geom=CHECKPOINT guess=CHECKPOINT\\COSMO-file for #XW
 BDWHCCBGMXKG-UHFFFAOYSA-N\\0,1\C,0,1.1485028196,-0.8183138191,0.326968
 5683\C,0,0.0774519111,0.2610042989,0.3851331557\N,0,-0.7041245711,0.35
 28888722,-0.8980981942\Cl,0,-2.7101663334,2.5489604575,-0.4721121806\H
 ,0,1.6895006264,-0.846403713,1.2829283763\H,0,1.8785586164,-0.61575045
 87,-0.4706646522\H,0,0.7075508679,-1.8117181368,0.156902136\H,0,0.5067
 552745,1.2572056278,0.5539266843\H,0,-0.657222717,0.0686331769,1.17787
 01372\H,0,-1.4591951838,1.1381517974,-0.8148537292\H,0,-0.0928054968,0
 .5739572731,-1.6943974414\H,0,-1.1795734477,-0.5330601693,-1.111898119
 2\\Version=ES64L-G16RevC.01\State=1-A\HF=-596.1430001\RMSD=7.015e-09\D
 ipole=3.4665816,-3.6751291,-0.5077897\Quadrupole=-3.909009,-1.9748971,
 5.8839061,7.6446877,-1.2135658,1.909275\PG=C01 [X(C2H8Cl1N1)]\\@
 The archive entry for this job was punched.


 Cherishing children is the mark of a civilized society.
 -- Joan Ganz Cooney
 Job cpu time:       0 days  0 hours  1 minutes 14.6 seconds.
 Elapsed time:       0 days  0 hours  0 minutes  3.8 seconds.
 File lengths (MBytes):  RWF=     18 Int=      0 D2E=      0 Chk=      5 Scr=      1
 Normal termination of Gaussian 16 at Sat Aug 21 09:34:16 2021.
