 Entering Gaussian System, Link 0=g16
 Input=YCOXTKKNXUZSKD-UHFFFAOYSA-N.gjf
 Output=YCOXTKKNXUZSKD-UHFFFAOYSA-N.log
 Initial command:
 /sw/arch/RedHatEnterpriseServer7/EB_production/2019/software/Gaussian/g16.c01/l1.exe "/scratch-local/elenaa.9715303/Gau-17434.inp" -scrdir="/scratch-local/elenaa.9715303/"
 Entering Link 1 = /sw/arch/RedHatEnterpriseServer7/EB_production/2019/software/Gaussian/g16.c01/l1.exe PID=     17437.
  
 Copyright (c) 1988-2019, Gaussian, Inc.  All Rights Reserved.
  
 This is part of the Gaussian(R) 16 program.  It is based on
 the Gaussian(R) 09 system (copyright 2009, Gaussian, Inc.),
 the Gaussian(R) 03 system (copyright 2003, Gaussian, Inc.),
 the Gaussian(R) 98 system (copyright 1998, Gaussian, Inc.),
 the Gaussian(R) 94 system (copyright 1995, Gaussian, Inc.),
 the Gaussian 92(TM) system (copyright 1992, Gaussian, Inc.),
 the Gaussian 90(TM) system (copyright 1990, Gaussian, Inc.),
 the Gaussian 88(TM) system (copyright 1988, Gaussian, Inc.),
 the Gaussian 86(TM) system (copyright 1986, Carnegie Mellon
 University), and the Gaussian 82(TM) system (copyright 1983,
 Carnegie Mellon University). Gaussian is a federally registered
 trademark of Gaussian, Inc.
  
 This software contains proprietary and confidential information,
 including trade secrets, belonging to Gaussian, Inc.
  
 This software is provided under written license and may be
 used, copied, transmitted, or stored only in accord with that
 written license.
  
 The following legend is applicable only to US Government
 contracts under FAR:
  
                    RESTRICTED RIGHTS LEGEND
  
 Use, reproduction and disclosure by the US Government is
 subject to restrictions as set forth in subparagraphs (a)
 and (c) of the Commercial Computer Software - Restricted
 Rights clause in FAR 52.227-19.
  
 Gaussian, Inc.
 340 Quinnipiac St., Bldg. 40, Wallingford CT 06492
  
  
 ---------------------------------------------------------------
 Warning -- This program may not be used in any manner that
 competes with the business of Gaussian, Inc. or will provide
 assistance to any competitor of Gaussian, Inc.  The licensee
 of this program is prohibited from giving any competitor of
 Gaussian, Inc. access to this program.  By using this program,
 the user acknowledges that Gaussian, Inc. is engaged in the
 business of creating and licensing software in the field of
 computational chemistry and represents and warrants to the
 licensee that it is not a competitor of Gaussian, Inc. and that
 it will not use this program in any manner prohibited above.
 ---------------------------------------------------------------
  

 Cite this work as:
 Gaussian 16, Revision C.01,
 M. J. Frisch, G. W. Trucks, H. B. Schlegel, G. E. Scuseria, 
 M. A. Robb, J. R. Cheeseman, G. Scalmani, V. Barone, 
 G. A. Petersson, H. Nakatsuji, X. Li, M. Caricato, A. V. Marenich, 
 J. Bloino, B. G. Janesko, R. Gomperts, B. Mennucci, H. P. Hratchian, 
 J. V. Ortiz, A. F. Izmaylov, J. L. Sonnenberg, D. Williams-Young, 
 F. Ding, F. Lipparini, F. Egidi, J. Goings, B. Peng, A. Petrone, 
 T. Henderson, D. Ranasinghe, V. G. Zakrzewski, J. Gao, N. Rega, 
 G. Zheng, W. Liang, M. Hada, M. Ehara, K. Toyota, R. Fukuda, 
 J. Hasegawa, M. Ishida, T. Nakajima, Y. Honda, O. Kitao, H. Nakai, 
 T. Vreven, K. Throssell, J. A. Montgomery, Jr., J. E. Peralta, 
 F. Ogliaro, M. J. Bearpark, J. J. Heyd, E. N. Brothers, K. N. Kudin, 
 V. N. Staroverov, T. A. Keith, R. Kobayashi, J. Normand, 
 K. Raghavachari, A. P. Rendell, J. C. Burant, S. S. Iyengar, 
 J. Tomasi, M. Cossi, J. M. Millam, M. Klene, C. Adamo, R. Cammi, 
 J. W. Ochterski, R. L. Martin, K. Morokuma, O. Farkas, 
 J. B. Foresman, and D. J. Fox, Gaussian, Inc., Wallingford CT, 2019.
 
 ******************************************
 Gaussian 16:  ES64L-G16RevC.01  3-Jul-2019
                22-Feb-2021 
 ******************************************
 %chk=YCOXTKKNXUZSKD-UHFFFAOYSA-N.chk
 %NProcShared=32
 Will use up to   32 processors via shared memory.
 -------------------------------------------------------------
 #P BP86/TZVP EmpiricalDispersion=GD3 SCRF=(Solvent=Water) Opt
 -------------------------------------------------------------
 1/18=20,19=15,26=3,38=1/1,3;
 2/9=110,12=2,17=6,18=5,40=1/2;
 3/5=19,7=101,11=2,25=1,30=1,70=2201,71=1,72=1,74=404,124=31/1,2,3;
 4//1;
 5/5=2,38=5,53=1/2;
 6/7=2,8=2,9=2,10=2,28=1/1;
 7//1,2,3,16;
 1/18=20,19=15,26=3/3(2);
 2/9=110/2;
 99//99;
 2/9=110/2;
 3/5=19,7=101,11=2,25=1,30=1,70=2205,71=1,72=1,74=404,124=31/1,2,3;
 4/5=5,16=3,69=1/1;
 5/5=2,38=5,53=1/2;
 7//1,2,3,16;
 1/18=20,19=15,26=3/3(-5);
 2/9=110/2;
 6/7=2,8=2,9=2,10=2,19=2,28=1/1;
 99/9=1/99;
 Leave Link    1 at Mon Feb 22 21:29:31 2021, MaxMem=           0 cpu:               2.1 elap:               0.1
 (Enter /sw/arch/RedHatEnterpriseServer7/EB_production/2019/software/Gaussian/g16.c01/l101.exe)
 -------------------------------------
 Particle #YCOXTKKNXUZSKD-UHFFFAOYSA-N
 -------------------------------------
 Symbolic Z-matrix:
 Charge =  0 Multiplicity = 1
 C                    -2.89848   1.69714  -3.22189 
 C                    -2.66134   0.40669  -2.5213 
 C                    -2.22525   0.42392  -1.17363 
 C                    -1.95372  -0.76792  -0.48409 
 C                    -2.13022  -2.0057   -1.12435 
 O                    -1.86239  -3.17015  -0.48141 
 C                    -2.58699  -2.04117  -2.45358 
 C                    -2.84977  -0.84937  -3.1717 
 C                    -3.30715  -0.93408  -4.58565 
 H                    -2.24272   1.76789  -4.09093 
 H                    -2.69731   2.56162  -2.58612 
 H                    -3.93725   1.75973  -3.55112 
 H                    -2.09499   1.3108   -0.68047 
 H                    -1.62455  -0.73188   0.48411 
 H                    -1.43582  -2.9165    0.36376 
 H                    -2.7202   -2.95388  -2.89513 
 H                    -2.58391  -0.44033  -5.23717 
 H                    -3.42027  -1.96337  -4.93259 
 H                    -4.27488  -0.44177  -4.68843 
 
 ITRead=  0  0  0  0  0  0  0  0  0  0  0  0  0  0  0  0  0  0  0
 MicOpt= -1 -1 -1 -1 -1 -1 -1 -1 -1 -1 -1 -1 -1 -1 -1 -1 -1 -1 -1
 NAtoms=     19 NQM=       19 NQMF=       0 NMMI=      0 NMMIF=      0
                NMic=       0 NMicF=      0.
                    Isotopes and Nuclear Properties:
 (Nuclear quadrupole moments (NQMom) in fm**2, nuclear magnetic moments (NMagM)
  in nuclear magnetons)

  Atom         1           2           3           4           5           6           7           8           9          10
 IAtWgt=          12          12          12          12          12          16          12          12          12           1
 AtmWgt=  12.0000000  12.0000000  12.0000000  12.0000000  12.0000000  15.9949146  12.0000000  12.0000000  12.0000000   1.0078250
 NucSpn=           0           0           0           0           0           0           0           0           0           1
 AtZEff=  -0.0000000  -0.0000000  -0.0000000  -0.0000000  -0.0000000  -0.0000000  -0.0000000  -0.0000000  -0.0000000  -0.0000000
 NQMom=    0.0000000   0.0000000   0.0000000   0.0000000   0.0000000   0.0000000   0.0000000   0.0000000   0.0000000   0.0000000
 NMagM=    0.0000000   0.0000000   0.0000000   0.0000000   0.0000000   0.0000000   0.0000000   0.0000000   0.0000000   2.7928460
 AtZNuc=   6.0000000   6.0000000   6.0000000   6.0000000   6.0000000   8.0000000   6.0000000   6.0000000   6.0000000   1.0000000

  Atom        11          12          13          14          15          16          17          18          19
 IAtWgt=           1           1           1           1           1           1           1           1           1
 AtmWgt=   1.0078250   1.0078250   1.0078250   1.0078250   1.0078250   1.0078250   1.0078250   1.0078250   1.0078250
 NucSpn=           1           1           1           1           1           1           1           1           1
 AtZEff=  -0.0000000  -0.0000000  -0.0000000  -0.0000000  -0.0000000  -0.0000000  -0.0000000  -0.0000000  -0.0000000
 NQMom=    0.0000000   0.0000000   0.0000000   0.0000000   0.0000000   0.0000000   0.0000000   0.0000000   0.0000000
 NMagM=    2.7928460   2.7928460   2.7928460   2.7928460   2.7928460   2.7928460   2.7928460   2.7928460   2.7928460
 AtZNuc=   1.0000000   1.0000000   1.0000000   1.0000000   1.0000000   1.0000000   1.0000000   1.0000000   1.0000000
 Leave Link  101 at Mon Feb 22 21:29:31 2021, MaxMem=   104857600 cpu:               2.9 elap:               0.1
 (Enter /sw/arch/RedHatEnterpriseServer7/EB_production/2019/software/Gaussian/g16.c01/l103.exe)

 GradGradGradGradGradGradGradGradGradGradGradGradGradGradGradGradGradGrad
 Berny optimization.
 Initialization pass.
                           ----------------------------
                           !    Initial Parameters    !
                           ! (Angstroms and Degrees)  !
 --------------------------                            --------------------------
 ! Name  Definition              Value          Derivative Info.                !
 --------------------------------------------------------------------------------
 ! R1    R(1,2)                  1.4874         estimate D2E/DX2                !
 ! R2    R(1,10)                 1.091          estimate D2E/DX2                !
 ! R3    R(1,11)                 1.0918         estimate D2E/DX2                !
 ! R4    R(1,12)                 1.0915         estimate D2E/DX2                !
 ! R5    R(2,3)                  1.4166         estimate D2E/DX2                !
 ! R6    R(2,8)                  1.427          estimate D2E/DX2                !
 ! R7    R(3,4)                  1.4035         estimate D2E/DX2                !
 ! R8    R(3,13)                 1.0231         estimate D2E/DX2                !
 ! R9    R(4,5)                  1.4047         estimate D2E/DX2                !
 ! R10   R(4,14)                 1.0233         estimate D2E/DX2                !
 ! R11   R(5,6)                  1.3569         estimate D2E/DX2                !
 ! R12   R(5,7)                  1.406          estimate D2E/DX2                !
 ! R13   R(6,15)                 0.9801         estimate D2E/DX2                !
 ! R14   R(7,8)                  1.416          estimate D2E/DX2                !
 ! R15   R(7,16)                 1.0226         estimate D2E/DX2                !
 ! R16   R(8,9)                  1.4885         estimate D2E/DX2                !
 ! R17   R(9,17)                 1.0915         estimate D2E/DX2                !
 ! R18   R(9,18)                 1.0921         estimate D2E/DX2                !
 ! R19   R(9,19)                 1.0906         estimate D2E/DX2                !
 ! A1    A(2,1,10)             109.6108         estimate D2E/DX2                !
 ! A2    A(2,1,11)             112.5384         estimate D2E/DX2                !
 ! A3    A(2,1,12)             110.0939         estimate D2E/DX2                !
 ! A4    A(10,1,11)            107.563          estimate D2E/DX2                !
 ! A5    A(10,1,12)            109.1504         estimate D2E/DX2                !
 ! A6    A(11,1,12)            107.7943         estimate D2E/DX2                !
 ! A7    A(1,2,3)              119.1198         estimate D2E/DX2                !
 ! A8    A(1,2,8)              121.8668         estimate D2E/DX2                !
 ! A9    A(3,2,8)              119.0112         estimate D2E/DX2                !
 ! A10   A(2,3,4)              121.1078         estimate D2E/DX2                !
 ! A11   A(2,3,13)             120.5518         estimate D2E/DX2                !
 ! A12   A(4,3,13)             118.3393         estimate D2E/DX2                !
 ! A13   A(3,4,5)              120.0037         estimate D2E/DX2                !
 ! A14   A(3,4,14)             119.8154         estimate D2E/DX2                !
 ! A15   A(5,4,14)             120.1806         estimate D2E/DX2                !
 ! A16   A(4,5,6)              121.0268         estimate D2E/DX2                !
 ! A17   A(4,5,7)              119.6019         estimate D2E/DX2                !
 ! A18   A(6,5,7)              119.3709         estimate D2E/DX2                !
 ! A19   A(5,6,15)             105.8082         estimate D2E/DX2                !
 ! A20   A(5,7,8)              121.2326         estimate D2E/DX2                !
 ! A21   A(5,7,16)             118.2326         estimate D2E/DX2                !
 ! A22   A(8,7,16)             120.5336         estimate D2E/DX2                !
 ! A23   A(2,8,7)              119.0252         estimate D2E/DX2                !
 ! A24   A(2,8,9)              121.5765         estimate D2E/DX2                !
 ! A25   A(7,8,9)              119.3973         estimate D2E/DX2                !
 ! A26   A(8,9,17)             109.7347         estimate D2E/DX2                !
 ! A27   A(8,9,18)             112.7834         estimate D2E/DX2                !
 ! A28   A(8,9,19)             109.6629         estimate D2E/DX2                !
 ! A29   A(17,9,18)            107.7801         estimate D2E/DX2                !
 ! A30   A(17,9,19)            109.1175         estimate D2E/DX2                !
 ! A31   A(18,9,19)            107.6744         estimate D2E/DX2                !
 ! D1    D(10,1,2,3)           119.7746         estimate D2E/DX2                !
 ! D2    D(10,1,2,8)           -59.6852         estimate D2E/DX2                !
 ! D3    D(11,1,2,3)             0.1255         estimate D2E/DX2                !
 ! D4    D(11,1,2,8)          -179.3344         estimate D2E/DX2                !
 ! D5    D(12,1,2,3)          -120.1484         estimate D2E/DX2                !
 ! D6    D(12,1,2,8)            60.3918         estimate D2E/DX2                !
 ! D7    D(1,2,3,4)           -178.2415         estimate D2E/DX2                !
 ! D8    D(1,2,3,13)             1.3765         estimate D2E/DX2                !
 ! D9    D(8,2,3,4)              1.2339         estimate D2E/DX2                !
 ! D10   D(8,2,3,13)          -179.148          estimate D2E/DX2                !
 ! D11   D(1,2,8,7)            179.0555         estimate D2E/DX2                !
 ! D12   D(1,2,8,9)             -0.5834         estimate D2E/DX2                !
 ! D13   D(3,2,8,7)             -0.4049         estimate D2E/DX2                !
 ! D14   D(3,2,8,9)            179.9562         estimate D2E/DX2                !
 ! D15   D(2,3,4,5)             -0.8458         estimate D2E/DX2                !
 ! D16   D(2,3,4,14)           178.9677         estimate D2E/DX2                !
 ! D17   D(13,3,4,5)           179.528          estimate D2E/DX2                !
 ! D18   D(13,3,4,14)           -0.6586         estimate D2E/DX2                !
 ! D19   D(3,4,5,6)            179.3964         estimate D2E/DX2                !
 ! D20   D(3,4,5,7)             -0.3815         estimate D2E/DX2                !
 ! D21   D(14,4,5,6)            -0.4164         estimate D2E/DX2                !
 ! D22   D(14,4,5,7)           179.8058         estimate D2E/DX2                !
 ! D23   D(4,5,6,15)            -8.1489         estimate D2E/DX2                !
 ! D24   D(7,5,6,15)           171.6295         estimate D2E/DX2                !
 ! D25   D(4,5,7,8)              1.2145         estimate D2E/DX2                !
 ! D26   D(4,5,7,16)          -179.1831         estimate D2E/DX2                !
 ! D27   D(6,5,7,8)           -178.567          estimate D2E/DX2                !
 ! D28   D(6,5,7,16)             1.0354         estimate D2E/DX2                !
 ! D29   D(5,7,8,2)             -0.8117         estimate D2E/DX2                !
 ! D30   D(5,7,8,9)            178.8352         estimate D2E/DX2                !
 ! D31   D(16,7,8,2)           179.5949         estimate D2E/DX2                !
 ! D32   D(16,7,8,9)            -0.7582         estimate D2E/DX2                !
 ! D33   D(2,8,9,17)            60.8643         estimate D2E/DX2                !
 ! D34   D(2,8,9,18)          -178.9669         estimate D2E/DX2                !
 ! D35   D(2,8,9,19)           -58.9818         estimate D2E/DX2                !
 ! D36   D(7,8,9,17)          -118.7733         estimate D2E/DX2                !
 ! D37   D(7,8,9,18)             1.3955         estimate D2E/DX2                !
 ! D38   D(7,8,9,19)           121.3806         estimate D2E/DX2                !
 --------------------------------------------------------------------------------
 Trust Radius=3.00D-01 FncErr=1.00D-07 GrdErr=1.00D-06 EigMax=2.50D+02 EigMin=1.00D-04
 Number of steps in this run=     98 maximum allowed number of steps=    114.
 GradGradGradGradGradGradGradGradGradGradGradGradGradGradGradGradGradGrad

 Leave Link  103 at Mon Feb 22 21:29:31 2021, MaxMem=   104857600 cpu:               0.7 elap:               0.1
 (Enter /sw/arch/RedHatEnterpriseServer7/EB_production/2019/software/Gaussian/g16.c01/l202.exe)
                          Input orientation:                          
 ---------------------------------------------------------------------
 Center     Atomic      Atomic             Coordinates (Angstroms)
 Number     Number       Type             X           Y           Z
 ---------------------------------------------------------------------
      1          6           0       -2.898480    1.697140   -3.221890
      2          6           0       -2.661340    0.406690   -2.521300
      3          6           0       -2.225250    0.423920   -1.173630
      4          6           0       -1.953720   -0.767920   -0.484090
      5          6           0       -2.130220   -2.005700   -1.124350
      6          8           0       -1.862390   -3.170150   -0.481410
      7          6           0       -2.586990   -2.041170   -2.453580
      8          6           0       -2.849770   -0.849370   -3.171700
      9          6           0       -3.307150   -0.934080   -4.585650
     10          1           0       -2.242720    1.767890   -4.090930
     11          1           0       -2.697310    2.561620   -2.586120
     12          1           0       -3.937250    1.759730   -3.551120
     13          1           0       -2.094990    1.310800   -0.680470
     14          1           0       -1.624550   -0.731880    0.484110
     15          1           0       -1.435820   -2.916500    0.363760
     16          1           0       -2.720200   -2.953880   -2.895130
     17          1           0       -2.583910   -0.440330   -5.237170
     18          1           0       -3.420270   -1.963370   -4.932590
     19          1           0       -4.274880   -0.441770   -4.688430
 ---------------------------------------------------------------------
                    Distance matrix (angstroms):
                    1          2          3          4          5
     1  C    0.000000
     2  C    1.487388   0.000000
     3  C    2.503936   1.416575   0.000000
     4  C    3.803241   2.455740   1.403452   0.000000
     5  C    4.324456   2.837813   2.431977   1.404701   0.000000
     6  O    5.681041   4.194432   3.678067   2.403967   1.356852
     7  C    3.829137   2.449925   2.801035   2.429215   1.405969
     8  C    2.547470   1.426959   2.450220   2.834217   2.458962
     9  C    2.991684   2.544853   3.828388   4.322288   3.809742
    10  H    1.090989   2.119398   3.212040   4.418501   4.801378
    11  H    1.091787   2.156205   2.605327   4.007155   4.828952
    12  H    1.091491   2.125839   3.219905   4.441855   4.830428
    13  H    2.693264   2.127633   1.023099   2.092749   3.346258
    14  H    4.610583   3.376946   2.108273   1.023261   2.113164
    15  H    6.023449   4.568267   3.761007   2.367164   1.877823
    16  H    4.665891   3.381811   3.823359   3.343505   2.093510
    17  H    2.954503   2.845942   4.169883   4.805853   4.423970
    18  H    4.074076   3.465181   4.610532   4.834152   4.021034
    19  H    2.936010   2.831934   4.159834   4.813588   4.443885
                    6          7          8          9         10
     6  O    0.000000
     7  C    2.385182   0.000000
     8  C    3.687628   1.416029   0.000000
     9  C    4.892047   2.507987   1.488498   0.000000
    10  H    6.128419   4.160334   2.839638   2.945913   0.000000
    11  H    6.162798   4.606019   3.464246   4.073075   1.760998
    12  H    6.166999   4.180268   2.852012   2.953623   1.778453
    13  H    4.491396   3.823831   3.382640   4.664681   3.444124
    14  H    2.633241   3.357165   3.857449   5.345512   5.249950
    15  H    0.980108   3.166828   4.332639   5.650533   6.514512
    16  H    2.570730   1.022620   2.126556   2.698511   4.894184
    17  H    5.530801   3.211086   2.122301   1.091487   2.511277
    18  H    4.867886   2.616467   2.160370   1.092063   4.002164
    19  H    5.564457   3.225152   2.120742   1.090612   3.060928
                   11         12         13         14         15
    11  H    0.000000
    12  H    1.764002   0.000000
    13  H    2.357720   3.440362   0.000000
    14  H    4.628636   5.276342   2.397937   0.000000
    15  H    6.348460   6.591704   4.403974   2.196057   0.000000
    16  H    5.524197   4.912194   4.845937   4.190107   3.503055
    17  H    4.006573   3.084568   4.906018   5.808478   6.230565
    18  H    5.148216   4.004647   5.527846   5.837963   5.735662
    19  H    3.991088   2.500814   4.887450   5.819242   6.301522
                   16         17         18         19
    16  H    0.000000
    17  H    3.438264   0.000000
    18  H    2.371171   1.764063   0.000000
    19  H    3.455959   1.777779   1.762169   0.000000
 Stoichiometry    C8H10O
 Framework group  C1[X(C8H10O)]
 Deg. of freedom    51
 Full point group                 C1      NOp   1
 Largest Abelian subgroup         C1      NOp   1
 Largest concise Abelian subgroup C1      NOp   1
                         Standard orientation:                         
 ---------------------------------------------------------------------
 Center     Atomic      Atomic             Coordinates (Angstroms)
 Number     Number       Type             X           Y           Z
 ---------------------------------------------------------------------
      1          6           0       -2.514858   -1.033583    0.023050
      2          6           0       -1.089601   -0.609241   -0.006973
      3          6           0       -0.075918   -1.598647   -0.021363
      4          6           0        1.282313   -1.245359   -0.012817
      5          6           0        1.655881    0.108747   -0.007592
      6          8           0        2.962575    0.473686    0.012936
      7          6           0        0.662235    1.103375   -0.019117
      8          6           0       -0.713281    0.767198   -0.010291
      9          6           0       -1.730848    1.853476    0.003293
     10          1           0       -2.993999   -0.644109    0.922489
     11          1           0       -2.628077   -2.119435    0.033317
     12          1           0       -3.038332   -0.651925   -0.855394
     13          1           0       -0.319207   -2.592336   -0.032440
     14          1           0        1.998171   -1.976511   -0.007520
     15          1           0        3.468625   -0.353552    0.155075
     16          1           0        0.957761    2.082322   -0.027878
     17          1           0       -2.336762    1.779596    0.908143
     18          1           0       -1.285558    2.850372   -0.019394
     19          1           0       -2.378766    1.760306   -0.869034
 ---------------------------------------------------------------------
 Rotational constants (GHZ):           2.9486654           1.3003341           0.9129458
 Leave Link  202 at Mon Feb 22 21:29:31 2021, MaxMem=   104857600 cpu:               0.8 elap:               0.1
 (Enter /sw/arch/RedHatEnterpriseServer7/EB_production/2019/software/Gaussian/g16.c01/l301.exe)
 Standard basis: TZVP (5D, 7F)
 Ernie: Thresh=  0.10000D-02 Tol=  0.10000D-05 Strict=F.
 There are   240 symmetry adapted cartesian basis functions of A   symmetry.
 There are   231 symmetry adapted basis functions of A   symmetry.
   231 basis functions,   395 primitive gaussians,   240 cartesian basis functions
    33 alpha electrons       33 beta electrons
       nuclear repulsion energy       424.8239059870 Hartrees.
 IExCor=  404 DFT=T Ex=B Corr=P86 ExCW=0 ScaHFX=  0.000000
 ScaDFX=  1.000000  1.000000  1.000000  1.000000 ScalE2=  1.000000  1.000000
 IRadAn=      5 IRanWt=     -1 IRanGd=            0 ICorTp=0 IEmpDi=131
 NAtoms=   19 NActive=   19 NUniq=   19 SFac= 1.00D+00 NAtFMM=   60 NAOKFM=F Big=F
 Integral buffers will be    131072 words long.
 Raffenetti 2 integral format.
 Two-electron integral symmetry is turned on.
 R6Disp:  Grimme-D3 Dispersion energy=       -0.0149060726 Hartrees.
 Nuclear repulsion after empirical dispersion term =      424.8089999143 Hartrees.
 ------------------------------------------------------------------------------
 Polarizable Continuum Model (PCM)
 =================================
 Model                : PCM.
 Atomic radii         : UFF (Universal Force Field).
 Polarization charges : Total charges.
 Charge compensation  : None.
 Solution method      : On-the-fly selection.
 Cavity type          : Scaled VdW (van der Waals Surface) (Alpha=1.100).
 Cavity algorithm     : GePol (No added spheres)
                        Default sphere list used, NSphG=   19.
                        Lebedev-Laikov grids with approx.  5.0 points / Ang**2.
                        Smoothing algorithm: York/Karplus (Gamma=1.0000).
                        Polarization charges: spherical gaussians, with
                                              point-specific exponents (IZeta= 3).
                        Self-potential: point-specific (ISelfS= 7).
                        Self-field    : sphere-specific E.n sum rule (ISelfD= 2).
 1st derivatives      : Analytical E(r).r(x)/FMM algorithm (CHGder, D1EAlg=3).
                        Cavity 1st derivative terms included.
 Solvent              : Water, Eps=  78.355300 Eps(inf)=   1.777849
 ------------------------------------------------------------------------------
 Spheres list:
 ISph  on   Nord     Re0    Alpha      Xe            Ye            Ze
    1   C      1    1.9255  1.100     -2.514858     -1.033583      0.023050
    2   C      2    1.9255  1.100     -1.089601     -0.609241     -0.006973
    3   C      3    1.9255  1.100     -0.075918     -1.598647     -0.021363
    4   C      4    1.9255  1.100      1.282313     -1.245359     -0.012817
    5   C      5    1.9255  1.100      1.655881      0.108747     -0.007592
    6   O      6    1.7500  1.100      2.962575      0.473686      0.012936
    7   C      7    1.9255  1.100      0.662235      1.103375     -0.019117
    8   C      8    1.9255  1.100     -0.713281      0.767198     -0.010291
    9   C      9    1.9255  1.100     -1.730848      1.853476      0.003293
   10   H     10    1.4430  1.100     -2.993999     -0.644109      0.922489
   11   H     11    1.4430  1.100     -2.628077     -2.119435      0.033317
   12   H     12    1.4430  1.100     -3.038332     -0.651925     -0.855394
   13   H     13    1.4430  1.100     -0.319207     -2.592336     -0.032440
   14   H     14    1.4430  1.100      1.998171     -1.976511     -0.007520
   15   H     15    1.4430  1.100      3.468625     -0.353552      0.155075
   16   H     16    1.4430  1.100      0.957761      2.082322     -0.027878
   17   H     17    1.4430  1.100     -2.336762      1.779596      0.908143
   18   H     18    1.4430  1.100     -1.285558      2.850372     -0.019394
   19   H     19    1.4430  1.100     -2.378766      1.760306     -0.869034
 ------------------------------------------------------------------------------
 GePol: Number of generator spheres                  =      19
 GePol: Total number of spheres                      =      19
 GePol: Number of exposed spheres                    =      19 (100.00%)
 GePol: Number of points                             =    1513
 GePol: Average weight of points                     =       0.13
 GePol: Minimum weight of points                     =   0.32D-08
 GePol: Maximum weight of points                     =    0.20577
 GePol: Number of points with low weight             =     101
 GePol: Fraction of low-weight points (<1% of avg)   =       6.68%
 GePol: Cavity surface area                          =    193.607 Ang**2
 GePol: Cavity volume                                =    194.252 Ang**3
 Leave Link  301 at Mon Feb 22 21:29:31 2021, MaxMem=   104857600 cpu:               1.8 elap:               0.1
 (Enter /sw/arch/RedHatEnterpriseServer7/EB_production/2019/software/Gaussian/g16.c01/l302.exe)
 NPDir=0 NMtPBC=     1 NCelOv=     1 NCel=       1 NClECP=     1 NCelD=      1
         NCelK=      1 NCelE2=     1 NClLst=     1 CellRange=     0.0.
 One-electron integrals computed using PRISM.
 One-electron integral symmetry used in STVInt
 PrsmSu:  requested number of processors reduced to:  29 ShMem   1 Linda.
 NBasis=   231 RedAO= T EigKep=  8.04D-06  NBF=   231
 NBsUse=   231 1.00D-06 EigRej= -1.00D+00 NBFU=   231
 Precomputing XC quadrature grid using
 IXCGrd= 4 IRadAn=           5 IRanWt=          -1 IRanGd=           0 AccXCQ= 0.00D+00.
 Generated NRdTot=       0 NPtTot=           0 NUsed=           0 NTot=          32
 NSgBfM=   238   238   238   238   238 MxSgAt=    19 MxSgA2=    19.
 Leave Link  302 at Mon Feb 22 21:29:32 2021, MaxMem=   104857600 cpu:               8.6 elap:               0.3
 (Enter /sw/arch/RedHatEnterpriseServer7/EB_production/2019/software/Gaussian/g16.c01/l303.exe)
 DipDrv:  MaxL=1.
 Leave Link  303 at Mon Feb 22 21:29:32 2021, MaxMem=   104857600 cpu:               2.3 elap:               0.1
 (Enter /sw/arch/RedHatEnterpriseServer7/EB_production/2019/software/Gaussian/g16.c01/l401.exe)
 ExpMin= 9.52D-02 ExpMax= 2.70D+04 ExpMxC= 9.22D+02 IAcc=3 IRadAn=         5 AccDes= 0.00D+00
 Harris functional with IExCor=  404 and IRadAn=       5 diagonalized for initial guess.
 HarFok:  IExCor=  404 AccDes= 0.00D+00 IRadAn=         5 IDoV= 1 UseB2=F ITyADJ=14
 ICtDFT=  3500011 ScaDFX=  1.000000  1.000000  1.000000  1.000000
 FoFCou: FMM=F IPFlag=           0 FMFlag=      100000 FMFlg1=           0
         NFxFlg=           0 DoJE=T BraDBF=F KetDBF=T FulRan=T
         wScrn=  0.000000 ICntrl=       500 IOpCl=  0 I1Cent=   200000004 NGrid=           0
         NMat0=    1 NMatS0=      1 NMatT0=    0 NMatD0=    1 NMtDS0=    0 NMtDT0=    0
 Petite list used in FoFCou.
 Harris En= -386.443611258114    
 JPrj=0 DoOrth=F DoCkMO=F.
 Leave Link  401 at Mon Feb 22 21:29:32 2021, MaxMem=   104857600 cpu:              13.2 elap:               0.5
 (Enter /sw/arch/RedHatEnterpriseServer7/EB_production/2019/software/Gaussian/g16.c01/l502.exe)
 Integral symmetry usage will be decided dynamically.
 Closed shell SCF:
 Using DIIS extrapolation, IDIIS=  1040.
 NGot=   104857600 LenX=   104731736 LenY=   104673695
 Requested convergence on RMS density matrix=1.00D-08 within 128 cycles.
 Requested convergence on MAX density matrix=1.00D-06.
 Requested convergence on             energy=1.00D-06.
 No special actions if energy rises.
 Fock matrices will be formed incrementally for  20 cycles.

 Cycle   1  Pass 1  IDiag  1:
 FoFJK:  IHMeth= 1 ICntrl=     500 DoSepK=F KAlg= 0 I1Cent=           0 FoldK=F
 IRaf= 930000000 NMat=       1 IRICut=       1 DoRegI=T DoRafI=F ISym2E= 0 IDoP0=0 IntGTp=1.
 FoFCou: FMM=F IPFlag=           0 FMFlag=      100000 FMFlg1=           0
         NFxFlg=           0 DoJE=T BraDBF=F KetDBF=F FulRan=T
         wScrn=  0.000000 ICntrl=       500 IOpCl=  0 I1Cent=           0 NGrid=           0
         NMat0=    1 NMatS0=      1 NMatT0=    0 NMatD0=    1 NMtDS0=    0 NMtDT0=    0
 Symmetry not used in FoFCou.
 Inv3:  Mode=1 IEnd=     6867507.
 Iteration    1 A*A^-1 deviation from unit magnitude is 2.89D-15 for    237.
 Iteration    1 A*A^-1 deviation from orthogonality  is 2.88D-15 for   1108    558.
 Iteration    1 A^-1*A deviation from unit magnitude is 3.11D-15 for    237.
 Iteration    1 A^-1*A deviation from orthogonality  is 1.62D-15 for   1133    468.
 E= -385.984014918006    
 DIIS: error= 3.79D-02 at cycle   1 NSaved=   1.
 NSaved= 1 IEnMin= 1 EnMin= -385.984014918006     IErMin= 1 ErrMin= 3.79D-02
 ErrMax= 3.79D-02  0.00D+00 EMaxC= 1.00D-01 BMatC= 2.49D-01 BMatP= 2.49D-01
 IDIUse=3 WtCom= 6.21D-01 WtEn= 3.79D-01
 Coeff-Com:  0.100D+01
 Coeff-En:   0.100D+01
 Coeff:      0.100D+01
 Gap=     0.160 Goal=   None    Shift=    0.000
 GapD=    0.160 DampG=1.000 DampE=0.500 DampFc=0.5000 IDamp=-1.
 Damping current iteration by 5.00D-01
 RMSDP=1.03D-02 MaxDP=5.86D-01              OVMax= 1.87D-01

 Cycle   2  Pass 1  IDiag  1:
 RMSU=  5.17D-03    CP:  9.99D-01
 E= -386.078564984693     Delta-E=       -0.094550066688 Rises=F Damp=T
 DIIS: error= 7.97D-03 at cycle   2 NSaved=   2.
 NSaved= 2 IEnMin= 2 EnMin= -386.078564984693     IErMin= 2 ErrMin= 7.97D-03
 ErrMax= 7.97D-03  0.00D+00 EMaxC= 1.00D-01 BMatC= 1.65D-02 BMatP= 2.49D-01
 IDIUse=3 WtCom= 9.20D-01 WtEn= 7.97D-02
 Coeff-Com:  0.146D+00 0.854D+00
 Coeff-En:   0.248D+00 0.752D+00
 Coeff:      0.154D+00 0.846D+00
 Gap=     0.159 Goal=   None    Shift=    0.000
 RMSDP=2.62D-03 MaxDP=1.25D-01 DE=-9.46D-02 OVMax= 1.50D-01

 Cycle   3  Pass 1  IDiag  1:
 RMSU=  1.74D-03    CP:  9.82D-01  6.24D-01
 E= -386.226174083223     Delta-E=       -0.147609098530 Rises=F Damp=F
 DIIS: error= 6.74D-03 at cycle   3 NSaved=   3.
 NSaved= 3 IEnMin= 3 EnMin= -386.226174083223     IErMin= 3 ErrMin= 6.74D-03
 ErrMax= 6.74D-03  0.00D+00 EMaxC= 1.00D-01 BMatC= 8.13D-03 BMatP= 1.65D-02
 IDIUse=3 WtCom= 9.33D-01 WtEn= 6.74D-02
 Coeff-Com:  0.485D-01 0.418D+00 0.534D+00
 Coeff-En:   0.000D+00 0.000D+00 0.100D+01
 Coeff:      0.452D-01 0.390D+00 0.565D+00
 Gap=     0.149 Goal=   None    Shift=    0.000
 RMSDP=8.13D-04 MaxDP=1.93D-02 DE=-1.48D-01 OVMax= 7.53D-02

 Cycle   4  Pass 1  IDiag  1:
 RMSU=  7.19D-04    CP:  9.79D-01  5.71D-01  8.52D-01
 E= -386.229000512837     Delta-E=       -0.002826429614 Rises=F Damp=F
 DIIS: error= 6.33D-03 at cycle   4 NSaved=   4.
 NSaved= 4 IEnMin= 4 EnMin= -386.229000512837     IErMin= 4 ErrMin= 6.33D-03
 ErrMax= 6.33D-03  0.00D+00 EMaxC= 1.00D-01 BMatC= 5.13D-03 BMatP= 8.13D-03
 IDIUse=3 WtCom= 9.37D-01 WtEn= 6.33D-02
 Coeff-Com:  0.613D-02 0.119D+00 0.428D+00 0.447D+00
 Coeff-En:   0.000D+00 0.000D+00 0.425D+00 0.575D+00
 Coeff:      0.575D-02 0.111D+00 0.428D+00 0.455D+00
 Gap=     0.149 Goal=   None    Shift=    0.000
 RMSDP=4.08D-04 MaxDP=1.15D-02 DE=-2.83D-03 OVMax= 3.77D-02

 Cycle   5  Pass 1  IDiag  1:
 RMSU=  1.56D-04    CP:  9.80D-01  6.08D-01  9.11D-01  5.69D-01
 E= -386.234458715181     Delta-E=       -0.005458202343 Rises=F Damp=F
 DIIS: error= 1.13D-03 at cycle   5 NSaved=   5.
 NSaved= 5 IEnMin= 5 EnMin= -386.234458715181     IErMin= 5 ErrMin= 1.13D-03
 ErrMax= 1.13D-03  0.00D+00 EMaxC= 1.00D-01 BMatC= 2.00D-04 BMatP= 5.13D-03
 IDIUse=3 WtCom= 9.89D-01 WtEn= 1.13D-02
 Coeff-Com:  0.156D-02 0.426D-01 0.229D+00 0.274D+00 0.453D+00
 Coeff-En:   0.000D+00 0.000D+00 0.000D+00 0.000D+00 0.100D+01
 Coeff:      0.154D-02 0.421D-01 0.227D+00 0.271D+00 0.459D+00
 Gap=     0.149 Goal=   None    Shift=    0.000
 RMSDP=1.19D-04 MaxDP=6.69D-03 DE=-5.46D-03 OVMax= 6.97D-03

 Cycle   6  Pass 1  IDiag  1:
 RMSU=  8.44D-05    CP:  9.79D-01  5.95D-01  9.02D-01  6.16D-01  8.21D-01
 E= -386.234628864708     Delta-E=       -0.000170149527 Rises=F Damp=F
 DIIS: error= 3.15D-04 at cycle   6 NSaved=   6.
 NSaved= 6 IEnMin= 6 EnMin= -386.234628864708     IErMin= 6 ErrMin= 3.15D-04
 ErrMax= 3.15D-04  0.00D+00 EMaxC= 1.00D-01 BMatC= 2.35D-05 BMatP= 2.00D-04
 IDIUse=3 WtCom= 9.97D-01 WtEn= 3.15D-03
 Coeff-Com:  0.152D-03 0.856D-02 0.704D-01 0.912D-01 0.286D+00 0.544D+00
 Coeff-En:   0.000D+00 0.000D+00 0.000D+00 0.000D+00 0.111D+00 0.889D+00
 Coeff:      0.152D-03 0.853D-02 0.702D-01 0.909D-01 0.286D+00 0.545D+00
 Gap=     0.149 Goal=   None    Shift=    0.000
 RMSDP=5.59D-05 MaxDP=3.24D-03 DE=-1.70D-04 OVMax= 1.70D-03

 Cycle   7  Pass 1  IDiag  1:
 RMSU=  1.88D-05    CP:  9.79D-01  6.02D-01  9.07D-01  5.99D-01  8.30D-01
                    CP:  6.17D-01
 E= -386.234649396394     Delta-E=       -0.000020531687 Rises=F Damp=F
 DIIS: error= 9.41D-05 at cycle   7 NSaved=   7.
 NSaved= 7 IEnMin= 7 EnMin= -386.234649396394     IErMin= 7 ErrMin= 9.41D-05
 ErrMax= 9.41D-05  0.00D+00 EMaxC= 1.00D-01 BMatC= 1.41D-06 BMatP= 2.35D-05
 IDIUse=1 WtCom= 1.00D+00 WtEn= 0.00D+00
 Coeff-Com:  0.801D-04 0.376D-02 0.353D-01 0.463D-01 0.158D+00 0.332D+00
 Coeff-Com:  0.424D+00
 Coeff:      0.801D-04 0.376D-02 0.353D-01 0.463D-01 0.158D+00 0.332D+00
 Coeff:      0.424D+00
 Gap=     0.149 Goal=   None    Shift=    0.000
 RMSDP=1.13D-05 MaxDP=6.65D-04 DE=-2.05D-05 OVMax= 5.47D-04

 Cycle   8  Pass 1  IDiag  1:
 RMSU=  6.08D-06    CP:  9.79D-01  6.01D-01  9.07D-01  6.01D-01  8.23D-01
                    CP:  6.44D-01  8.61D-01
 E= -386.234650524648     Delta-E=       -0.000001128254 Rises=F Damp=F
 DIIS: error= 2.24D-05 at cycle   8 NSaved=   8.
 NSaved= 8 IEnMin= 8 EnMin= -386.234650524648     IErMin= 8 ErrMin= 2.24D-05
 ErrMax= 2.24D-05  0.00D+00 EMaxC= 1.00D-01 BMatC= 9.85D-08 BMatP= 1.41D-06
 IDIUse=1 WtCom= 1.00D+00 WtEn= 0.00D+00
 Coeff-Com:  0.431D-04 0.334D-03 0.480D-02 0.636D-02 0.256D-01 0.652D-01
 Coeff-Com:  0.227D+00 0.670D+00
 Coeff:      0.431D-04 0.334D-03 0.480D-02 0.636D-02 0.256D-01 0.652D-01
 Coeff:      0.227D+00 0.670D+00
 Gap=     0.149 Goal=   None    Shift=    0.000
 RMSDP=2.23D-06 MaxDP=8.68D-05 DE=-1.13D-06 OVMax= 1.69D-04

 Cycle   9  Pass 1  IDiag  1:
 RMSU=  1.41D-06    CP:  9.79D-01  6.01D-01  9.07D-01  6.01D-01  8.26D-01
                    CP:  6.40D-01  9.27D-01  9.21D-01
 E= -386.234650627674     Delta-E=       -0.000000103026 Rises=F Damp=F
 DIIS: error= 9.69D-06 at cycle   9 NSaved=   9.
 NSaved= 9 IEnMin= 9 EnMin= -386.234650627674     IErMin= 9 ErrMin= 9.69D-06
 ErrMax= 9.69D-06  0.00D+00 EMaxC= 1.00D-01 BMatC= 1.82D-08 BMatP= 9.85D-08
 IDIUse=1 WtCom= 1.00D+00 WtEn= 0.00D+00
 Coeff-Com:  0.230D-04-0.566D-04 0.486D-03 0.635D-03 0.419D-02 0.164D-01
 Coeff-Com:  0.111D+00 0.420D+00 0.447D+00
 Coeff:      0.230D-04-0.566D-04 0.486D-03 0.635D-03 0.419D-02 0.164D-01
 Coeff:      0.111D+00 0.420D+00 0.447D+00
 Gap=     0.149 Goal=   None    Shift=    0.000
 RMSDP=8.70D-07 MaxDP=3.21D-05 DE=-1.03D-07 OVMax= 5.92D-05

 Cycle  10  Pass 1  IDiag  1:
 RMSU=  4.82D-07    CP:  9.79D-01  6.01D-01  9.07D-01  6.01D-01  8.28D-01
                    CP:  6.42D-01  9.27D-01  9.18D-01  6.96D-01
 E= -386.234650644010     Delta-E=       -0.000000016337 Rises=F Damp=F
 DIIS: error= 2.24D-06 at cycle  10 NSaved=  10.
 NSaved=10 IEnMin=10 EnMin= -386.234650644010     IErMin=10 ErrMin= 2.24D-06
 ErrMax= 2.24D-06  0.00D+00 EMaxC= 1.00D-01 BMatC= 9.23D-10 BMatP= 1.82D-08
 IDIUse=1 WtCom= 1.00D+00 WtEn= 0.00D+00
 Coeff-Com:  0.768D-05-0.394D-04-0.441D-04-0.785D-04 0.366D-03 0.399D-02
 Coeff-Com:  0.387D-01 0.160D+00 0.239D+00 0.559D+00
 Coeff:      0.768D-05-0.394D-04-0.441D-04-0.785D-04 0.366D-03 0.399D-02
 Coeff:      0.387D-01 0.160D+00 0.239D+00 0.559D+00
 Gap=     0.149 Goal=   None    Shift=    0.000
 RMSDP=2.97D-07 MaxDP=1.81D-05 DE=-1.63D-08 OVMax= 2.27D-05

 Cycle  11  Pass 1  IDiag  1:
 RMSU=  1.49D-07    CP:  9.79D-01  6.01D-01  9.07D-01  6.01D-01  8.28D-01
                    CP:  6.43D-01  9.30D-01  9.18D-01  6.98D-01  6.66D-01
 E= -386.234650644723     Delta-E=       -0.000000000713 Rises=F Damp=F
 DIIS: error= 1.12D-06 at cycle  11 NSaved=  11.
 NSaved=11 IEnMin=11 EnMin= -386.234650644723     IErMin=11 ErrMin= 1.12D-06
 ErrMax= 1.12D-06  0.00D+00 EMaxC= 1.00D-01 BMatC= 2.71D-10 BMatP= 9.23D-10
 IDIUse=1 WtCom= 1.00D+00 WtEn= 0.00D+00
 Coeff-Com:  0.248D-05-0.197D-04-0.106D-03-0.156D-03-0.335D-03 0.772D-03
 Coeff-Com:  0.143D-01 0.645D-01 0.114D+00 0.384D+00 0.423D+00
 Coeff:      0.248D-05-0.197D-04-0.106D-03-0.156D-03-0.335D-03 0.772D-03
 Coeff:      0.143D-01 0.645D-01 0.114D+00 0.384D+00 0.423D+00
 Gap=     0.149 Goal=   None    Shift=    0.000
 RMSDP=1.00D-07 MaxDP=4.43D-06 DE=-7.13D-10 OVMax= 8.69D-06

 Cycle  12  Pass 1  IDiag  1:
 RMSU=  4.54D-08    CP:  9.79D-01  6.01D-01  9.07D-01  6.01D-01  8.28D-01
                    CP:  6.43D-01  9.31D-01  9.21D-01  6.97D-01  7.31D-01
                    CP:  6.58D-01
 E= -386.234650645004     Delta-E=       -0.000000000281 Rises=F Damp=F
 DIIS: error= 2.43D-07 at cycle  12 NSaved=  12.
 NSaved=12 IEnMin=12 EnMin= -386.234650645004     IErMin=12 ErrMin= 2.43D-07
 ErrMax= 2.43D-07  0.00D+00 EMaxC= 1.00D-01 BMatC= 7.03D-12 BMatP= 2.71D-10
 IDIUse=1 WtCom= 1.00D+00 WtEn= 0.00D+00
 Coeff-Com:  0.149D-06-0.534D-05-0.427D-04-0.637D-04-0.184D-03 0.411D-04
 Coeff-Com:  0.282D-02 0.150D-01 0.313D-01 0.125D+00 0.193D+00 0.633D+00
 Coeff:      0.149D-06-0.534D-05-0.427D-04-0.637D-04-0.184D-03 0.411D-04
 Coeff:      0.282D-02 0.150D-01 0.313D-01 0.125D+00 0.193D+00 0.633D+00
 Gap=     0.149 Goal=   None    Shift=    0.000
 RMSDP=2.44D-08 MaxDP=8.38D-07 DE=-2.81D-10 OVMax= 1.54D-06

 Cycle  13  Pass 1  IDiag  1:
 RMSU=  1.60D-08    CP:  9.79D-01  6.01D-01  9.07D-01  6.01D-01  8.28D-01
                    CP:  6.43D-01  9.31D-01  9.22D-01  7.03D-01  7.30D-01
                    CP:  6.55D-01  7.92D-01
 E= -386.234650645006     Delta-E=       -0.000000000002 Rises=F Damp=F
 DIIS: error= 1.26D-07 at cycle  13 NSaved=  13.
 NSaved=13 IEnMin=13 EnMin= -386.234650645006     IErMin=13 ErrMin= 1.26D-07
 ErrMax= 1.26D-07  0.00D+00 EMaxC= 1.00D-01 BMatC= 2.45D-12 BMatP= 7.03D-12
 IDIUse=1 WtCom= 1.00D+00 WtEn= 0.00D+00
 Coeff-Com: -0.149D-06-0.182D-05-0.192D-04-0.288D-04-0.917D-04-0.299D-04
 Coeff-Com:  0.669D-03 0.467D-02 0.113D-01 0.499D-01 0.914D-01 0.425D+00
 Coeff-Com:  0.417D+00
 Coeff:     -0.149D-06-0.182D-05-0.192D-04-0.288D-04-0.917D-04-0.299D-04
 Coeff:      0.669D-03 0.467D-02 0.113D-01 0.499D-01 0.914D-01 0.425D+00
 Coeff:      0.417D+00
 Gap=     0.149 Goal=   None    Shift=    0.000
 RMSDP=8.11D-09 MaxDP=3.55D-07 DE=-2.16D-12 OVMax= 6.03D-07

 Error on total polarization charges =  0.01398
 SCF Done:  E(RB-P86) =  -386.234650645     A.U. after   13 cycles
            NFock= 13  Conv=0.81D-08     -V/T= 2.0038
 KE= 3.847553752677D+02 PE=-1.748810690927D+03 EE= 5.530116651002D+02
 Leave Link  502 at Mon Feb 22 21:29:44 2021, MaxMem=   104857600 cpu:             367.9 elap:              11.8
 (Enter /sw/arch/RedHatEnterpriseServer7/EB_production/2019/software/Gaussian/g16.c01/l601.exe)
 Copying SCF densities to generalized density rwf, IOpCl= 0 IROHF=0.

 **********************************************************************

            Population analysis using the SCF Density.

 **********************************************************************

 Orbital symmetries:
       Occupied  (A) (A) (A) (A) (A) (A) (A) (A) (A) (A) (A) (A)
                 (A) (A) (A) (A) (A) (A) (A) (A) (A) (A) (A) (A)
                 (A) (A) (A) (A) (A) (A) (A) (A) (A)
       Virtual   (A) (A) (A) (A) (A) (A) (A) (A) (A) (A) (A) (A)
                 (A) (A) (A) (A) (A) (A) (A) (A) (A) (A) (A) (A)
                 (A) (A) (A) (A) (A) (A) (A) (A) (A) (A) (A) (A)
                 (A) (A) (A) (A) (A) (A) (A) (A) (A) (A) (A) (A)
                 (A) (A) (A) (A) (A) (A) (A) (A) (A) (A) (A) (A)
                 (A) (A) (A) (A) (A) (A) (A) (A) (A) (A) (A) (A)
                 (A) (A) (A) (A) (A) (A) (A) (A) (A) (A) (A) (A)
                 (A) (A) (A) (A) (A) (A) (A) (A) (A) (A) (A) (A)
                 (A) (A) (A) (A) (A) (A) (A) (A) (A) (A) (A) (A)
                 (A) (A) (A) (A) (A) (A) (A) (A) (A) (A) (A) (A)
                 (A) (A) (A) (A) (A) (A) (A) (A) (A) (A) (A) (A)
                 (A) (A) (A) (A) (A) (A) (A) (A) (A) (A) (A) (A)
                 (A) (A) (A) (A) (A) (A) (A) (A) (A) (A) (A) (A)
                 (A) (A) (A) (A) (A) (A) (A) (A) (A) (A) (A) (A)
                 (A) (A) (A) (A) (A) (A) (A) (A) (A) (A) (A) (A)
                 (A) (A) (A) (A) (A) (A) (A) (A) (A) (A) (A) (A)
                 (A) (A) (A) (A) (A) (A)
 The electronic state is 1-A.
 Alpha  occ. eigenvalues --  -18.80508  -9.95861  -9.91330  -9.90409  -9.89531
 Alpha  occ. eigenvalues --   -9.89181  -9.89107  -9.89091  -9.88823  -0.98592
 Alpha  occ. eigenvalues --   -0.78196  -0.70766  -0.69825  -0.64177  -0.60685
 Alpha  occ. eigenvalues --   -0.55722  -0.53941  -0.48159  -0.44382  -0.42923
 Alpha  occ. eigenvalues --   -0.40064  -0.39670  -0.37578  -0.36710  -0.36315
 Alpha  occ. eigenvalues --   -0.36030  -0.34915  -0.32529  -0.30844  -0.29979
 Alpha  occ. eigenvalues --   -0.28613  -0.22549  -0.19467
 Alpha virt. eigenvalues --   -0.04553  -0.02902   0.02296   0.02771   0.06024
 Alpha virt. eigenvalues --    0.06428   0.07806   0.09056   0.09096   0.09734
 Alpha virt. eigenvalues --    0.10869   0.12348   0.13175   0.13781   0.15534
 Alpha virt. eigenvalues --    0.17248   0.17451   0.17600   0.18826   0.19310
 Alpha virt. eigenvalues --    0.19453   0.21554   0.22223   0.23964   0.24949
 Alpha virt. eigenvalues --    0.25626   0.26874   0.27002   0.28494   0.29551
 Alpha virt. eigenvalues --    0.30058   0.31508   0.32526   0.33622   0.35575
 Alpha virt. eigenvalues --    0.36035   0.36666   0.37248   0.38522   0.40244
 Alpha virt. eigenvalues --    0.41569   0.42077   0.42185   0.42726   0.43512
 Alpha virt. eigenvalues --    0.43639   0.45339   0.47483   0.47614   0.47882
 Alpha virt. eigenvalues --    0.49038   0.50142   0.50870   0.51823   0.53935
 Alpha virt. eigenvalues --    0.54959   0.57617   0.59193   0.62158   0.62704
 Alpha virt. eigenvalues --    0.64797   0.66918   0.70507   0.71915   0.75145
 Alpha virt. eigenvalues --    0.77499   0.83633   0.89264   1.05796   1.10630
 Alpha virt. eigenvalues --    1.11324   1.17401   1.17968   1.18858   1.20881
 Alpha virt. eigenvalues --    1.21585   1.24137   1.25158   1.25559   1.25681
 Alpha virt. eigenvalues --    1.25962   1.26683   1.28592   1.30071   1.31099
 Alpha virt. eigenvalues --    1.33826   1.35346   1.36255   1.37875   1.38190
 Alpha virt. eigenvalues --    1.38971   1.39613   1.40849   1.41099   1.44509
 Alpha virt. eigenvalues --    1.45818   1.46204   1.46751   1.47088   1.47824
 Alpha virt. eigenvalues --    1.49006   1.49885   1.50699   1.52559   1.53764
 Alpha virt. eigenvalues --    1.56588   1.57672   1.59799   1.64344   1.69920
 Alpha virt. eigenvalues --    1.70173   1.72612   1.73316   1.74055   1.74629
 Alpha virt. eigenvalues --    1.75387   1.77675   1.78192   1.82770   1.84319
 Alpha virt. eigenvalues --    1.86207   1.87616   1.87818   1.90468   1.92105
 Alpha virt. eigenvalues --    1.98370   2.00901   2.03297   2.05764   2.08170
 Alpha virt. eigenvalues --    2.09644   2.11914   2.14855   2.16774   2.17829
 Alpha virt. eigenvalues --    2.19177   2.21899   2.22274   2.23813   2.24332
 Alpha virt. eigenvalues --    2.26748   2.26833   2.31254   2.33035   2.37331
 Alpha virt. eigenvalues --    2.38945   2.39202   2.41039   2.44735   2.47348
 Alpha virt. eigenvalues --    2.48534   2.49267   2.50308   2.53132   2.54129
 Alpha virt. eigenvalues --    2.56177   2.59581   2.60043   2.61701   2.65003
 Alpha virt. eigenvalues --    2.66830   2.72087   2.72803   2.74857   2.84378
 Alpha virt. eigenvalues --    2.85416   2.90300   2.91528   2.93511   2.99875
 Alpha virt. eigenvalues --    3.02734   3.06499   3.06912   3.09647   3.11701
 Alpha virt. eigenvalues --    3.13116   3.14600   3.20830   3.21948   3.24176
 Alpha virt. eigenvalues --    3.27030   3.28126   3.29993   3.34561   3.39956
 Alpha virt. eigenvalues --    3.49682   3.58763   3.95849   4.19345  21.06708
 Alpha virt. eigenvalues --   21.56663  21.64987  21.80527  21.82388  21.85045
 Alpha virt. eigenvalues --   21.91316  21.97942  43.15339
          Condensed to atoms (all electrons):
               1          2          3          4          5          6
     1  C    5.140401   0.312235  -0.079621   0.025226  -0.001782   0.000026
     2  C    0.312235   5.616419   0.333381   0.092845  -0.164282  -0.001739
     3  C   -0.079621   0.333381   5.349058   0.020255   0.148780   0.021434
     4  C    0.025226   0.092845   0.020255   5.896533   0.165852  -0.123290
     5  C   -0.001782  -0.164282   0.148780   0.165852   5.076835   0.374537
     6  O    0.000026  -0.001739   0.021434  -0.123290   0.374537   7.788236
     7  C    0.016936   0.029257  -0.122278  -0.041941   0.372503  -0.082141
     8  C   -0.141314   0.142192   0.038951  -0.151704   0.023822   0.011969
     9  C   -0.033609  -0.144580   0.018699  -0.003855   0.030031  -0.000175
    10  H    0.429562  -0.055651  -0.003863  -0.000377  -0.000487  -0.000003
    11  H    0.386699  -0.037658  -0.006388   0.000788   0.000256  -0.000000
    12  H    0.424769  -0.056275  -0.000466  -0.000855   0.000185  -0.000001
    13  H   -0.015929  -0.057353   0.417232  -0.043698   0.009583  -0.000112
    14  H   -0.000699   0.016317  -0.030256   0.427192  -0.076568  -0.006637
    15  H   -0.000006  -0.000604   0.007407  -0.030052  -0.024980   0.303974
    16  H    0.000037   0.029470  -0.006565   0.022018  -0.074037   0.004773
    17  H   -0.001326  -0.010457   0.001400   0.000065  -0.001118   0.000005
    18  H    0.001711   0.017508  -0.001265   0.000204   0.001497  -0.000013
    19  H   -0.001402  -0.007749   0.000549   0.000345  -0.001636   0.000005
               7          8          9         10         11         12
     1  C    0.016936  -0.141314  -0.033609   0.429562   0.386699   0.424769
     2  C    0.029257   0.142192  -0.144580  -0.055651  -0.037658  -0.056275
     3  C   -0.122278   0.038951   0.018699  -0.003863  -0.006388  -0.000466
     4  C   -0.041941  -0.151704  -0.003855  -0.000377   0.000788  -0.000855
     5  C    0.372503   0.023822   0.030031  -0.000487   0.000256   0.000185
     6  O   -0.082141   0.011969  -0.000175  -0.000003  -0.000000  -0.000001
     7  C    5.327603   0.428052  -0.096777   0.002359  -0.001252   0.000925
     8  C    0.428052   5.390983   0.336729  -0.011974   0.017955  -0.009220
     9  C   -0.096777   0.336729   5.142171  -0.001956   0.001661  -0.002340
    10  H    0.002359  -0.011974  -0.001956   0.549228  -0.022688  -0.038081
    11  H   -0.001252   0.017955   0.001661  -0.022688   0.526538  -0.022008
    12  H    0.000925  -0.009220  -0.002340  -0.038081  -0.022008   0.548926
    13  H    0.000476   0.021695  -0.000081  -0.000227   0.005350   0.000037
    14  H    0.009160   0.001482   0.000012   0.000030  -0.000010   0.000012
    15  H    0.012219  -0.001238   0.000053  -0.000000   0.000000   0.000000
    16  H    0.412293  -0.045923  -0.019467   0.000021   0.000001   0.000003
    17  H   -0.001680  -0.053319   0.426564   0.004393  -0.000014  -0.001539
    18  H   -0.005775  -0.038718   0.386381   0.000004  -0.000018  -0.000004
    19  H    0.000958  -0.055411   0.424619  -0.001654   0.000007   0.004419
              13         14         15         16         17         18
     1  C   -0.015929  -0.000699  -0.000006   0.000037  -0.001326   0.001711
     2  C   -0.057353   0.016317  -0.000604   0.029470  -0.010457   0.017508
     3  C    0.417232  -0.030256   0.007407  -0.006565   0.001400  -0.001265
     4  C   -0.043698   0.427192  -0.030052   0.022018   0.000065   0.000204
     5  C    0.009583  -0.076568  -0.024980  -0.074037  -0.001118   0.001497
     6  O   -0.000112  -0.006637   0.303974   0.004773   0.000005  -0.000013
     7  C    0.000476   0.009160   0.012219   0.412293  -0.001680  -0.005775
     8  C    0.021695   0.001482  -0.001238  -0.045923  -0.053319  -0.038718
     9  C   -0.000081   0.000012   0.000053  -0.019467   0.426564   0.386381
    10  H   -0.000227   0.000030  -0.000000   0.000021   0.004393   0.000004
    11  H    0.005350  -0.000010   0.000000   0.000001  -0.000014  -0.000018
    12  H    0.000037   0.000012   0.000000   0.000003  -0.001539  -0.000004
    13  H    0.527301  -0.004278  -0.000038   0.000021   0.000016   0.000002
    14  H   -0.004278   0.513598   0.000509  -0.000245  -0.000001  -0.000001
    15  H   -0.000038   0.000509   0.428588  -0.000934  -0.000002   0.000001
    16  H    0.000021  -0.000245  -0.000934   0.530999   0.000031   0.005306
    17  H    0.000016  -0.000001  -0.000002   0.000031   0.537312  -0.021807
    18  H    0.000002  -0.000001   0.000001   0.005306  -0.021807   0.522432
    19  H    0.000001   0.000002  -0.000002   0.000222  -0.034613  -0.022066
              19
     1  C   -0.001402
     2  C   -0.007749
     3  C    0.000549
     4  C    0.000345
     5  C   -0.001636
     6  O    0.000005
     7  C    0.000958
     8  C   -0.055411
     9  C    0.424619
    10  H   -0.001654
    11  H    0.000007
    12  H    0.004419
    13  H    0.000001
    14  H    0.000002
    15  H   -0.000002
    16  H    0.000222
    17  H   -0.034613
    18  H   -0.022066
    19  H    0.538225
 Mulliken charges:
               1
     1  C   -0.461913
     2  C   -0.053274
     3  C   -0.106445
     4  C   -0.255550
     5  C    0.141008
     6  O   -0.290848
     7  C   -0.260897
     8  C    0.094991
     9  C   -0.464080
    10  H    0.151364
    11  H    0.150780
    12  H    0.151512
    13  H    0.140002
    14  H    0.150380
    15  H    0.305102
    16  H    0.141977
    17  H    0.156090
    18  H    0.154621
    19  H    0.155180
 Sum of Mulliken charges =  -0.00000
 Mulliken charges with hydrogens summed into heavy atoms:
               1
     1  C   -0.008257
     2  C   -0.053274
     3  C    0.033557
     4  C   -0.105170
     5  C    0.141008
     6  O    0.014254
     7  C   -0.118920
     8  C    0.094991
     9  C    0.001811
 Electronic spatial extent (au):  <R**2>=           1275.3093
 Charge=              0.0000 electrons
 Dipole moment (field-independent basis, Debye):
    X=             -0.5015    Y=             -1.4282    Z=              0.2940  Tot=              1.5419
 Quadrupole moment (field-independent basis, Debye-Ang):
   XX=            -47.5593   YY=            -49.8935   ZZ=            -57.7235
   XY=             -6.4231   XZ=              0.9535   YZ=             -0.1948
 Traceless Quadrupole moment (field-independent basis, Debye-Ang):
   XX=              4.1661   YY=              1.8319   ZZ=             -5.9981
   XY=             -6.4231   XZ=              0.9535   YZ=             -0.1948
 Octapole moment (field-independent basis, Debye-Ang**2):
  XXX=             28.6015  YYY=             -1.6072  ZZZ=              0.5874  XYY=              2.7397
  XXY=            -21.5366  XXZ=              3.7657  XZZ=             -0.1321  YZZ=              2.3649
  YYZ=             -0.0936  XYZ=             -0.6284
 Hexadecapole moment (field-independent basis, Debye-Ang**3):
 XXXX=           -978.8076 YYYY=           -511.2320 ZZZZ=            -78.9900 XXXY=            -71.6855
 XXXZ=             14.7397 YYYX=              3.7072 YYYZ=             -0.2330 ZZZX=              0.6239
 ZZZY=             -0.0413 XXYY=           -266.1669 XXZZ=           -190.6319 YYZZ=           -113.3960
 XXYZ=             -2.0971 YYXZ=              0.0727 ZZXY=             -1.4899
 N-N= 4.248089999143D+02 E-N=-1.748810688173D+03  KE= 3.847553752677D+02
 No NMR shielding tensors so no spin-rotation constants.
 Leave Link  601 at Mon Feb 22 21:29:45 2021, MaxMem=   104857600 cpu:               7.9 elap:               0.4
 (Enter /sw/arch/RedHatEnterpriseServer7/EB_production/2019/software/Gaussian/g16.c01/l701.exe)
 ... and contract with generalized density number  0.
 Compute integral first derivatives.
 R6Disp: Adding Grimme-D3 dispersion energy 1st derivatives to the gradient.
 PrsmSu:  requested number of processors reduced to:  29 ShMem   1 Linda.
 D1PCM: PCM CHGder 1st derivatives, ID1Alg=3 FixD1E=F DoIter=F DoCFld=F I1PDM=0.
 GePol: Maximum number of non-zero 1st derivatives   =     204
 CoulSu:  requested number of processors reduced to:  29 ShMem   1 Linda.
 CoulSu:  requested number of processors reduced to:  30 ShMem   1 Linda.
 Leave Link  701 at Mon Feb 22 21:29:46 2021, MaxMem=   104857600 cpu:              25.1 elap:               0.9
 (Enter /sw/arch/RedHatEnterpriseServer7/EB_production/2019/software/Gaussian/g16.c01/l702.exe)
 L702 exits ... SP integral derivatives will be done elsewhere.
 Leave Link  702 at Mon Feb 22 21:29:46 2021, MaxMem=   104857600 cpu:               1.1 elap:               0.1
 (Enter /sw/arch/RedHatEnterpriseServer7/EB_production/2019/software/Gaussian/g16.c01/l703.exe)
 Integral derivatives from FoFJK, PRISM(SPDF).
 Compute integral first derivatives, UseDBF=F ICtDFT=           0.
 Calling FoFJK, ICntrl=      2527 FMM=F ISym2X=0 I1Cent= 0 IOpClX= 0 NMat=1 NMatS=1 NMatT=0.
 FoFJK:  IHMeth= 1 ICntrl=    2527 DoSepK=F KAlg= 0 I1Cent=           0 FoldK=F
 IRaf=         0 NMat=       1 IRICut=       1 DoRegI=T DoRafI=F ISym2E= 0 IDoP0=0 IntGTp=1.
 FoFCou: FMM=F IPFlag=           0 FMFlag=      100000 FMFlg1=         800
         NFxFlg=           0 DoJE=F BraDBF=F KetDBF=F FulRan=T
         wScrn=  0.000000 ICntrl=      2527 IOpCl=  0 I1Cent=           0 NGrid=           0
         NMat0=    1 NMatS0=      1 NMatT0=    0 NMatD0=    1 NMtDS0=    0 NMtDT0=    0
 Symmetry not used in FoFCou.
 Leave Link  703 at Mon Feb 22 21:29:48 2021, MaxMem=   104857600 cpu:              49.0 elap:               1.6
 (Enter /sw/arch/RedHatEnterpriseServer7/EB_production/2019/software/Gaussian/g16.c01/l716.exe)
 Dipole        =-1.97297457D-01-5.61885216D-01 1.15655391D-01
 ***** Axes restored to original set *****
 -------------------------------------------------------------------
 Center     Atomic                   Forces (Hartrees/Bohr)
 Number     Number              X              Y              Z
 -------------------------------------------------------------------
      1        6          -0.001251458    0.000864340   -0.002594697
      2        6           0.004933781   -0.011357353    0.015241195
      3        6          -0.008485498   -0.058357688   -0.033777212
      4        6          -0.018454551    0.001596856   -0.053572882
      5        6          -0.004188554    0.021674977   -0.010806773
      6        8           0.005937055   -0.010972070    0.010368106
      7        6           0.007029514    0.053017260    0.024512345
      8        6           0.007419589   -0.004701773    0.023530648
      9        6          -0.000535642   -0.000071484   -0.000988095
     10        1           0.001058484    0.003226842   -0.008539601
     11        1           0.000966726    0.002482505    0.003771153
     12        1          -0.005549389    0.003044576   -0.006013534
     13        1           0.006713111    0.048636069    0.024133152
     14        1           0.017549728    0.001740537    0.052833874
     15        1          -0.002118556   -0.007413009   -0.001279939
     16        1          -0.007197891   -0.048632852   -0.025522695
     17        1           0.001325308    0.004661136   -0.006687997
     18        1           0.000265449   -0.004422635    0.000260069
     19        1          -0.005417206    0.004983766   -0.004867117
 -------------------------------------------------------------------
 Cartesian Forces:  Max     0.058357688 RMS     0.019982217
 Leave Link  716 at Mon Feb 22 21:29:48 2021, MaxMem=   104857600 cpu:               1.0 elap:               0.1
 (Enter /sw/arch/RedHatEnterpriseServer7/EB_production/2019/software/Gaussian/g16.c01/l103.exe)

 GradGradGradGradGradGradGradGradGradGradGradGradGradGradGradGradGradGrad
 Berny optimization.
 FormGI is forming the generalized inverse of G from B-inverse, IUseBI=4.
 Internal  Forces:  Max     0.055697332 RMS     0.011273689
 Search for a local minimum.
 Step number   1 out of a maximum of   98
 All quantities printed in internal units (Hartrees-Bohrs-Radians)
 RMS Force = .11274D-01 SwitMx=.10000D-02 MixMth= 1
 Mixed Optimization -- RFO/linear search
 Second derivative matrix not updated -- first step.
 ITU=  0
     Eigenvalues ---    0.00918   0.00933   0.01437   0.01474   0.01799
     Eigenvalues ---    0.01938   0.01943   0.01952   0.02018   0.02035
     Eigenvalues ---    0.02060   0.02263   0.07223   0.07251   0.07506
     Eigenvalues ---    0.07523   0.16000   0.16000   0.16000   0.16000
     Eigenvalues ---    0.16000   0.16000   0.16000   0.16000   0.16000
     Eigenvalues ---    0.16000   0.22366   0.23486   0.24597   0.24999
     Eigenvalues ---    0.25000   0.25000   0.33615   0.33737   0.34575
     Eigenvalues ---    0.34607   0.34641   0.34641   0.34699   0.34742
     Eigenvalues ---    0.39532   0.40024   0.42560   0.43822   0.43847
     Eigenvalues ---    0.43902   0.43923   0.44129   0.44877   0.51364
     Eigenvalues ---    0.53589
 RFO step:  Lambda=-2.60034605D-02 EMin= 9.18094469D-03
 Linear search not attempted -- first point.
 Iteration  1 RMS(Cart)=  0.04147112 RMS(Int)=  0.00099428
 Iteration  2 RMS(Cart)=  0.00114190 RMS(Int)=  0.00007924
 Iteration  3 RMS(Cart)=  0.00000030 RMS(Int)=  0.00007924
 ITry= 1 IFail=0 DXMaxC= 2.24D-01 DCOld= 1.00D+10 DXMaxT= 3.00D-01 DXLimC= 3.00D+00 Rises=F
 Variable       Old X    -DE/DX   Delta X   Delta X   Delta X     New X
                                 (Linear)    (Quad)   (Total)
    R1        2.81076   0.01541   0.00000   0.04239   0.04239   2.85315
    R2        2.06167   0.00765   0.00000   0.02051   0.02051   2.08218
    R3        2.06318   0.00434   0.00000   0.01167   0.01167   2.07485
    R4        2.06262   0.00727   0.00000   0.01951   0.01951   2.08213
    R5        2.67694  -0.00879   0.00000  -0.01973  -0.01973   2.65721
    R6        2.69656  -0.01013   0.00000  -0.02387  -0.02387   2.67269
    R7        2.65214  -0.00260   0.00000  -0.00510  -0.00511   2.64703
    R8        1.93338   0.05465   0.00000   0.11765   0.11765   2.05103
    R9        2.65450  -0.00123   0.00000  -0.00179  -0.00179   2.65271
   R10        1.93368   0.05570   0.00000   0.11998   0.11998   2.05366
   R11        2.56408   0.02084   0.00000   0.03709   0.03709   2.60117
   R12        2.65690  -0.00366   0.00000  -0.00731  -0.00731   2.64958
   R13        1.85214  -0.00395   0.00000  -0.00732  -0.00732   1.84482
   R14        2.67591  -0.00874   0.00000  -0.01949  -0.01949   2.65642
   R15        1.93247   0.05536   0.00000   0.11900   0.11900   2.05148
   R16        2.81285   0.01272   0.00000   0.03511   0.03511   2.84797
   R17        2.06261   0.00698   0.00000   0.01874   0.01874   2.08135
   R18        2.06370   0.00406   0.00000   0.01091   0.01091   2.07461
   R19        2.06096   0.00752   0.00000   0.02013   0.02013   2.08109
    A1        1.91307   0.00558   0.00000   0.02986   0.02977   1.94284
    A2        1.96417  -0.00386   0.00000  -0.01976  -0.01963   1.94453
    A3        1.92150   0.00510   0.00000   0.02655   0.02646   1.94796
    A4        1.87733  -0.00057   0.00000  -0.00142  -0.00130   1.87603
    A5        1.90503  -0.00598   0.00000  -0.03421  -0.03450   1.87053
    A6        1.88136  -0.00067   0.00000  -0.00326  -0.00315   1.87822
    A7        2.07903   0.00711   0.00000   0.02683   0.02683   2.10587
    A8        2.12698  -0.00527   0.00000  -0.01800  -0.01800   2.10898
    A9        2.07714  -0.00184   0.00000  -0.00880  -0.00881   2.06833
   A10        2.11373   0.00310   0.00000   0.01254   0.01252   2.12625
   A11        2.10403  -0.00397   0.00000  -0.01927  -0.01927   2.08476
   A12        2.06541   0.00087   0.00000   0.00677   0.00677   2.07218
   A13        2.09446  -0.00331   0.00000  -0.01112  -0.01114   2.08332
   A14        2.09117   0.00186   0.00000   0.00668   0.00668   2.09786
   A15        2.09755   0.00145   0.00000   0.00445   0.00446   2.10201
   A16        2.11232   0.00788   0.00000   0.02746   0.02745   2.13977
   A17        2.08745  -0.00110   0.00000  -0.00175  -0.00178   2.08567
   A18        2.08341  -0.00678   0.00000  -0.02568  -0.02568   2.05773
   A19        1.84670   0.01235   0.00000   0.06638   0.06638   1.91309
   A20        2.11591  -0.00046   0.00000  -0.00166  -0.00168   2.11423
   A21        2.06355   0.00188   0.00000   0.00974   0.00974   2.07329
   A22        2.10371  -0.00142   0.00000  -0.00805  -0.00805   2.09566
   A23        2.07738   0.00362   0.00000   0.01109   0.01109   2.08847
   A24        2.12191  -0.00617   0.00000  -0.02135  -0.02135   2.10056
   A25        2.08388   0.00255   0.00000   0.01027   0.01027   2.09414
   A26        1.91523   0.00444   0.00000   0.02290   0.02285   1.93808
   A27        1.96844  -0.00384   0.00000  -0.01923  -0.01912   1.94932
   A28        1.91398   0.00480   0.00000   0.02542   0.02538   1.93936
   A29        1.88112  -0.00019   0.00000  -0.00019  -0.00009   1.88102
   A30        1.90446  -0.00544   0.00000  -0.03214  -0.03232   1.87214
   A31        1.87927  -0.00011   0.00000   0.00132   0.00142   1.88070
    D1        2.09046   0.00046   0.00000   0.00502   0.00486   2.09532
    D2       -1.04170   0.00033   0.00000   0.00175   0.00159  -1.04012
    D3        0.00219  -0.00012   0.00000  -0.00073  -0.00072   0.00146
    D4       -3.12998  -0.00025   0.00000  -0.00400  -0.00400  -3.13398
    D5       -2.09699  -0.00023   0.00000  -0.00185  -0.00168  -2.09867
    D6        1.05404  -0.00036   0.00000  -0.00512  -0.00496   1.04907
    D7       -3.11090  -0.00056   0.00000  -0.01338  -0.01346  -3.12436
    D8        0.02403  -0.00024   0.00000  -0.00610  -0.00617   0.01786
    D9        0.02154  -0.00046   0.00000  -0.01026  -0.01031   0.01123
   D10       -3.12672  -0.00013   0.00000  -0.00298  -0.00302  -3.12974
   D11        3.12511   0.00021   0.00000   0.00408   0.00398   3.12909
   D12       -0.01018   0.00018   0.00000   0.00371   0.00366  -0.00652
   D13       -0.00707   0.00003   0.00000   0.00062   0.00058  -0.00648
   D14        3.14083   0.00000   0.00000   0.00026   0.00027   3.14110
   D15       -0.01476   0.00052   0.00000   0.01118   0.01120  -0.00356
   D16        3.12358   0.00054   0.00000   0.01208   0.01218   3.13576
   D17        3.13335   0.00022   0.00000   0.00415   0.00406   3.13741
   D18       -0.01149   0.00024   0.00000   0.00505   0.00504  -0.00646
   D19        3.13106   0.00029   0.00000   0.00690   0.00710   3.13815
   D20       -0.00666  -0.00012   0.00000  -0.00224  -0.00219  -0.00885
   D21       -0.00727   0.00027   0.00000   0.00599   0.00611  -0.00116
   D22        3.13820  -0.00014   0.00000  -0.00315  -0.00318   3.13502
   D23       -0.14223   0.00073   0.00000   0.01482   0.01481  -0.12741
   D24        2.99550   0.00115   0.00000   0.02400   0.02401   3.01951
   D25        0.02120  -0.00037   0.00000  -0.00767  -0.00762   0.01357
   D26       -3.12733  -0.00012   0.00000  -0.00246  -0.00245  -3.12978
   D27       -3.11658  -0.00080   0.00000  -0.01678  -0.01660  -3.13318
   D28        0.01807  -0.00056   0.00000  -0.01157  -0.01142   0.00665
   D29       -0.01417   0.00038   0.00000   0.00836   0.00837  -0.00579
   D30        3.12126   0.00038   0.00000   0.00860   0.00857   3.12983
   D31        3.13452   0.00012   0.00000   0.00297   0.00306   3.13759
   D32       -0.01323   0.00012   0.00000   0.00320   0.00326  -0.00997
   D33        1.06228  -0.00042   0.00000  -0.00433  -0.00424   1.05804
   D34       -3.12356  -0.00011   0.00000  -0.00136  -0.00138  -3.12494
   D35       -1.02943   0.00055   0.00000   0.00529   0.00516  -1.02427
   D36       -2.07299  -0.00046   0.00000  -0.00470  -0.00456  -2.07755
   D37        0.02436  -0.00015   0.00000  -0.00172  -0.00170   0.02266
   D38        2.11849   0.00052   0.00000   0.00493   0.00484   2.12333
         Item               Value     Threshold  Converged?
 Maximum Force            0.055697     0.000450     NO 
 RMS     Force            0.011274     0.000300     NO 
 Maximum Displacement     0.224098     0.001800     NO 
 RMS     Displacement     0.041578     0.001200     NO 
 Predicted change in Energy=-1.386923D-02
 Lowest energy point so far.  Saving SCF results.
 GradGradGradGradGradGradGradGradGradGradGradGradGradGradGradGradGradGrad

 Leave Link  103 at Mon Feb 22 21:29:48 2021, MaxMem=   104857600 cpu:               1.0 elap:               0.1
 (Enter /sw/arch/RedHatEnterpriseServer7/EB_production/2019/software/Gaussian/g16.c01/l202.exe)
                          Input orientation:                          
 ---------------------------------------------------------------------
 Center     Atomic      Atomic             Coordinates (Angstroms)
 Number     Number       Type             X           Y           Z
 ---------------------------------------------------------------------
      1          6           0       -2.913666    1.692433   -3.251716
      2          6           0       -2.652100    0.402931   -2.511223
      3          6           0       -2.213225    0.419534   -1.175434
      4          6           0       -1.943697   -0.761269   -0.471757
      5          6           0       -2.118681   -1.998728   -1.110971
      6          8           0       -1.869982   -3.198824   -0.484381
      7          6           0       -2.570001   -2.032632   -2.438013
      8          6           0       -2.835317   -0.847579   -3.146032
      9          6           0       -3.304994   -0.913928   -4.576519
     10          1           0       -2.272828    1.779105   -4.143830
     11          1           0       -2.715787    2.566324   -2.617144
     12          1           0       -3.958791    1.758877   -3.594202
     13          1           0       -2.078199    1.370441   -0.669920
     14          1           0       -1.600452   -0.717449    0.558433
     15          1           0       -1.459689   -3.035087    0.386187
     16          1           0       -2.711923   -2.996182   -2.917538
     17          1           0       -2.593936   -0.410070   -5.250028
     18          1           0       -3.414538   -1.950916   -4.919885
     19          1           0       -4.279403   -0.415310   -4.697719
 ---------------------------------------------------------------------
                    Distance matrix (angstroms):
                    1          2          3          4          5
     1  C    0.000000
     2  C    1.509822   0.000000
     3  C    2.534134   1.406136   0.000000
     4  C    3.832709   2.452879   1.400750   0.000000
     5  C    4.340445   2.830761   2.420968   1.403752   0.000000
     6  O    5.715926   4.206238   3.699714   2.438702   1.376480
     7  C    3.828358   2.438045   2.781099   2.423795   1.402098
     8  C    2.543417   1.414329   2.424012   2.820316   2.445442
     9  C    2.949807   2.534923   3.812802   4.327297   3.820229
    10  H    1.101841   2.168665   3.265480   4.477269   4.847063
    11  H    1.097962   2.166921   2.634351   4.033817   4.844047
    12  H    1.101816   2.172297   3.269753   4.490145   4.865392
    13  H    2.732646   2.157739   1.085358   2.145122   3.398157
    14  H    4.695668   3.432784   2.162063   1.086752   2.167290
    15  H    6.139856   4.651537   3.865344   2.478020   1.936438
    16  H    4.704836   3.423834   3.866618   3.401007   2.147215
    17  H    2.918218   2.857517   4.175584   4.835082   4.458867
    18  H    4.038274   3.453051   4.591634   4.833682   4.023601
    19  H    2.898059   2.845768   4.168039   4.840864   4.476684
                    6          7          8          9         10
     6  O    0.000000
     7  C    2.380485   0.000000
     8  C    3.680301   1.405715   0.000000
     9  C    4.901592   2.522879   1.507080   0.000000
    10  H    6.191415   4.186581   2.865565   2.916336   0.000000
    11  H    6.204917   4.604751   3.456695   4.037136   1.773893
    12  H    6.213929   4.200125   2.873442   2.921693   1.773407
    13  H    4.577768   3.866384   3.409395   4.688804   3.503275
    14  H    2.705056   3.412978   3.907031   5.414037   5.366204
    15  H    0.976237   3.195906   4.376542   5.703763   6.660232
    16  H    2.582670   1.085594   2.164239   2.727587   4.949743
    17  H    5.568900   3.246646   2.162516   1.101404   2.473716
    18  H    4.859694   2.622901   2.167811   1.097836   3.977288
    19  H    5.595130   3.262523   2.163325   1.101265   3.024664
                   11         12         13         14         15
    11  H    0.000000
    12  H    1.775294   0.000000
    13  H    2.372412   3.498419   0.000000
    14  H    4.702279   5.379436   2.469085   0.000000
    15  H    6.478703   6.713502   4.572373   2.328289   0.000000
    16  H    5.570612   4.962171   4.951847   4.302367   3.533299
    17  H    3.975656   3.051053   4.941011   5.900823   6.320138
    18  H    5.118235   3.976961   5.556926   5.901214   5.757714
    19  H    3.957755   2.459193   4.925177   5.907216   6.376529
                   16         17         18         19
    16  H    0.000000
    17  H    3.484595   0.000000
    18  H    2.365511   1.776679   0.000000
    19  H    3.505273   1.773661   1.776355   0.000000
 Stoichiometry    C8H10O
 Framework group  C1[X(C8H10O)]
 Deg. of freedom    51
 Full point group                 C1      NOp   1
 RotChk:  IX=0 Diff= 3.74D-03
 Largest Abelian subgroup         C1      NOp   1
 Largest concise Abelian subgroup C1      NOp   1
                         Standard orientation:                         
 ---------------------------------------------------------------------
 Center     Atomic      Atomic             Coordinates (Angstroms)
 Number     Number       Type             X           Y           Z
 ---------------------------------------------------------------------
      1          6           0       -2.542322   -0.997946    0.015011
      2          6           0       -1.083484   -0.609377   -0.004215
      3          6           0       -0.079363   -1.593701   -0.012302
      4          6           0        1.281277   -1.260906   -0.009597
      5          6           0        1.659271    0.090980   -0.002881
      6          8           0        2.975744    0.492908    0.004101
      7          6           0        0.669993    1.084539   -0.009797
      8          6           0       -0.695500    0.750692   -0.007023
      9          6           0       -1.737157    1.839811    0.000733
     10          1           0       -3.050916   -0.600642    0.908058
     11          1           0       -2.666530   -2.088835    0.022494
     12          1           0       -3.077901   -0.607427   -0.865130
     13          1           0       -0.359958   -2.642121   -0.021480
     14          1           0        2.035413   -2.043407   -0.010543
     15          1           0        3.555003   -0.284250    0.120392
     16          1           0        0.975292    2.126303   -0.015724
     17          1           0       -2.368315    1.777020    0.901171
     18          1           0       -1.280612    2.838009   -0.019588
     19          1           0       -2.403716    1.757537   -0.872030
 ---------------------------------------------------------------------
 Rotational constants (GHZ):           2.9735416           1.2845515           0.9073254
 Leave Link  202 at Mon Feb 22 21:29:48 2021, MaxMem=   104857600 cpu:               0.3 elap:               0.0
 (Enter /sw/arch/RedHatEnterpriseServer7/EB_production/2019/software/Gaussian/g16.c01/l301.exe)
 Standard basis: TZVP (5D, 7F)
 Ernie: Thresh=  0.10000D-02 Tol=  0.10000D-05 Strict=F.
 There are   240 symmetry adapted cartesian basis functions of A   symmetry.
 There are   231 symmetry adapted basis functions of A   symmetry.
   231 basis functions,   395 primitive gaussians,   240 cartesian basis functions
    33 alpha electrons       33 beta electrons
       nuclear repulsion energy       423.0761778321 Hartrees.
 IExCor=  404 DFT=T Ex=B Corr=P86 ExCW=0 ScaHFX=  0.000000
 ScaDFX=  1.000000  1.000000  1.000000  1.000000 ScalE2=  1.000000  1.000000
 IRadAn=      5 IRanWt=     -1 IRanGd=            0 ICorTp=0 IEmpDi=131
 NAtoms=   19 NActive=   19 NUniq=   19 SFac= 1.00D+00 NAtFMM=   60 NAOKFM=F Big=F
 Integral buffers will be    131072 words long.
 Raffenetti 2 integral format.
 Two-electron integral symmetry is turned on.
 R6Disp:  Grimme-D3 Dispersion energy=       -0.0149267789 Hartrees.
 Nuclear repulsion after empirical dispersion term =      423.0612510533 Hartrees.
 ------------------------------------------------------------------------------
 Polarizable Continuum Model (PCM)
 =================================
 Model                : PCM.
 Atomic radii         : UFF (Universal Force Field).
 Polarization charges : Total charges.
 Charge compensation  : None.
 Solution method      : On-the-fly selection.
 Cavity type          : Scaled VdW (van der Waals Surface) (Alpha=1.100).
 Cavity algorithm     : GePol (No added spheres)
                        Default sphere list used, NSphG=   19.
                        Lebedev-Laikov grids with approx.  5.0 points / Ang**2.
                        Smoothing algorithm: York/Karplus (Gamma=1.0000).
                        Polarization charges: spherical gaussians, with
                                              point-specific exponents (IZeta= 3).
                        Self-potential: point-specific (ISelfS= 7).
                        Self-field    : sphere-specific E.n sum rule (ISelfD= 2).
 1st derivatives      : Analytical E(r).r(x)/FMM algorithm (CHGder, D1EAlg=3).
                        Cavity 1st derivative terms included.
 Solvent              : Water, Eps=  78.355300 Eps(inf)=   1.777849
 ------------------------------------------------------------------------------
 Spheres list:
 ISph  on   Nord     Re0    Alpha      Xe            Ye            Ze
    1   C      1    1.9255  1.100     -2.542322     -0.997946      0.015011
    2   C      2    1.9255  1.100     -1.083484     -0.609377     -0.004215
    3   C      3    1.9255  1.100     -0.079363     -1.593701     -0.012302
    4   C      4    1.9255  1.100      1.281277     -1.260906     -0.009597
    5   C      5    1.9255  1.100      1.659271      0.090980     -0.002881
    6   O      6    1.7500  1.100      2.975744      0.492908      0.004101
    7   C      7    1.9255  1.100      0.669993      1.084539     -0.009797
    8   C      8    1.9255  1.100     -0.695500      0.750692     -0.007023
    9   C      9    1.9255  1.100     -1.737157      1.839811      0.000733
   10   H     10    1.4430  1.100     -3.050916     -0.600642      0.908058
   11   H     11    1.4430  1.100     -2.666530     -2.088835      0.022494
   12   H     12    1.4430  1.100     -3.077901     -0.607427     -0.865130
   13   H     13    1.4430  1.100     -0.359958     -2.642121     -0.021480
   14   H     14    1.4430  1.100      2.035413     -2.043407     -0.010543
   15   H     15    1.4430  1.100      3.555003     -0.284250      0.120392
   16   H     16    1.4430  1.100      0.975292      2.126303     -0.015724
   17   H     17    1.4430  1.100     -2.368315      1.777020      0.901171
   18   H     18    1.4430  1.100     -1.280612      2.838009     -0.019588
   19   H     19    1.4430  1.100     -2.403716      1.757537     -0.872030
 ------------------------------------------------------------------------------
 GePol: Number of generator spheres                  =      19
 GePol: Total number of spheres                      =      19
 GePol: Number of exposed spheres                    =      19 (100.00%)
 GePol: Number of points                             =    1516
 GePol: Average weight of points                     =       0.13
 GePol: Minimum weight of points                     =   0.35D-11
 GePol: Maximum weight of points                     =    0.20577
 GePol: Number of points with low weight             =     100
 GePol: Fraction of low-weight points (<1% of avg)   =       6.60%
 GePol: Cavity surface area                          =    196.184 Ang**2
 GePol: Cavity volume                                =    196.559 Ang**3
 Leave Link  301 at Mon Feb 22 21:29:48 2021, MaxMem=   104857600 cpu:               1.8 elap:               0.1
 (Enter /sw/arch/RedHatEnterpriseServer7/EB_production/2019/software/Gaussian/g16.c01/l302.exe)
 NPDir=0 NMtPBC=     1 NCelOv=     1 NCel=       1 NClECP=     1 NCelD=      1
[...]
 ------------------------------------------------------------------------------
 Spheres list:
 ISph  on   Nord     Re0    Alpha      Xe            Ye            Ze
    1   C      1    2.0000  1.000     -2.542729     -0.996783     -0.000103
    2   C      2    2.0000  1.000     -1.082972     -0.611040      0.000044
    3   C      3    2.0000  1.000     -0.081382     -1.592162     -0.000020
    4   C      4    2.0000  1.000      1.280142     -1.265317      0.000209
    5   C      5    2.0000  1.000      1.656083      0.083190     -0.000054
    6   O      6    1.7200  1.000      2.973146      0.498125     -0.000066
    7   C      7    2.0000  1.000      0.670417      1.080585     -0.000098
    8   C      8    2.0000  1.000     -0.691539      0.751629     -0.000231
    9   C      9    2.0000  1.000     -1.732430      1.844993      0.000180
   10   H     10    1.3000  1.000     -3.069447     -0.596524      0.882193
   11   H     11    1.3000  1.000     -2.664284     -2.089019      0.002405
   12   H     12    1.3000  1.000     -3.067991     -0.600913     -0.885288
   13   H     13    1.3000  1.000     -0.368952     -2.647086      0.000238
   14   H     14    1.3000  1.000      2.038562     -2.052510      0.000278
   15   H     15    1.3000  1.000      3.555208     -0.284435      0.000208
   16   H     16    1.3000  1.000      0.983919      2.127405     -0.000333
   17   H     17    1.3000  1.000     -2.385339      1.775311      0.885745
   18   H     18    1.3000  1.000     -1.269494      2.841180     -0.003614
   19   H     19    1.3000  1.000     -2.390880      1.771018     -0.880861
 ------------------------------------------------------------------------------
 One-electron integrals computed using PRISM.
 PrsmSu:  requested number of processors reduced to:  29 ShMem   1 Linda.
 NBasis=   231 RedAO= T EigKep=  7.85D-06  NBF=   231
 NBsUse=   231 1.00D-06 EigRej= -1.00D+00 NBFU=   231
 Initial guess from the checkpoint file:  "YCOXTKKNXUZSKD-UHFFFAOYSA-N.chk"
 B after Tr=     0.000000   -0.000000    0.000000
         Rot=    1.000000   -0.000000   -0.000000   -0.000000 Ang=   0.00 deg.
 Requested convergence on RMS density matrix=1.00D-08 within 128 cycles.
 Requested convergence on MAX density matrix=1.00D-06.
 Requested convergence on             energy=1.00D-06.
 No special actions if energy rises.
 Inv3:  Mode=1 IEnd=     5038848.
 Iteration    1 A*A^-1 deviation from unit magnitude is 2.84D-14 for    681.
 Iteration    1 A*A^-1 deviation from orthogonality  is 4.97D-14 for   1152    681.
 Iteration    1 A^-1*A deviation from unit magnitude is 2.13D-14 for    683.
 Iteration    1 A^-1*A deviation from orthogonality  is 3.20D-14 for   1154    683.
 Error on nuclear    polarization charges =  0.03043
 Error on electronic polarization charges = -0.06207
 SCF Done:  E(RB-P86) =  -386.238653233     A.U. after   11 cycles
            NFock= 11  Conv=0.35D-08     -V/T= 2.0049
 --------------------------------------------------------------------
 Variational C-PCM results
 =========================
 <psi(f)|   H    |psi(f)>                     (a.u.) =    -386.224787
 <psi(f)|H+V(f)/2|psi(f)>                     (a.u.) =    -386.238653
 Total free energy in solution:
 - with all non electrostatic terms           (a.u.) =    -386.227363
 --------------------------------------------------------------------
 (Polarized solute)-Solvent               (kcal/mol) =      -8.70
 --------------------------------------------------------------------
 Cavitation energy                        (kcal/mol) =      22.01
 Dispersion energy                        (kcal/mol) =     -16.25
 Repulsion energy                         (kcal/mol) =       1.32
 Total non electrostatic                  (kcal/mol) =       7.09
 --------------------------------------------------------------------
 Partition over spheres:
 Sphere  on Atom  Surface  Charge   GEl     GCav    GDR
    1      C1      16.18   0.027    0.01    1.90   -1.20
    2      C2       5.84   0.033   -0.25    0.69   -0.37
    3      C3      12.89   0.050   -0.37    1.51   -0.97
    4      C4      13.47   0.037   -0.52    1.58   -1.03
    5      C5       7.92   0.026   -0.28    0.93   -0.54
    6      O6      16.21   0.143   -2.09    2.01   -1.51
    7      C7      12.57   0.049   -0.47    1.48   -0.95
    8      C8       5.83   0.029   -0.23    0.69   -0.37
    9      C9      16.14   0.022   -0.00    1.90   -1.21
   10      H10      6.48  -0.025   -0.15    0.91   -0.65
   11      H11      6.38  -0.027   -0.17    0.90   -0.64
   12      H12      6.48  -0.025   -0.14    0.91   -0.65
   13      H13      6.43  -0.036   -0.26    0.91   -0.71
   14      H14      6.45  -0.044   -0.55    0.91   -0.73
   15      H15      8.13  -0.139   -2.69    1.15   -0.82
   16      H16      6.43  -0.037   -0.08    0.91   -0.66
   17      H17      6.47  -0.028   -0.16    0.91   -0.64
   18      H18      6.37  -0.028   -0.14    0.90   -0.64
   19      H19      6.46  -0.028   -0.16    0.91   -0.64
 --------------------------------------------------------------------
 - cavitation energy not included in the total energy.
 - dispersion energy not included in the total energy.
 - repulsion  energy not included in the total energy.
 After PCM corrections, the energy is  -386.238653233     a.u.
 --------------------------------------------------------------------
 Writing COSMO formatted file "YCOXTKKNXUZSKD-UHFFFAOYSA-N.cosmo"
 Recomputed dielectric energy= -0.013911 old= -0.013867 diff=-4.46D-05

 **********************************************************************

            Population analysis using the SCF Density.

 **********************************************************************

 Orbital symmetries:
       Occupied  (A) (A) (A) (A) (A) (A) (A) (A) (A) (A) (A) (A)
                 (A) (A) (A) (A) (A) (A) (A) (A) (A) (A) (A) (A)
                 (A) (A) (A) (A) (A) (A) (A) (A) (A)
       Virtual   (A) (A) (A) (A) (A) (A) (A) (A) (A) (A) (A) (A)
                 (A) (A) (A) (A) (A) (A) (A) (A) (A) (A) (A) (A)
                 (A) (A) (A) (A) (A) (A) (A) (A) (A) (A) (A) (A)
                 (A) (A) (A) (A) (A) (A) (A) (A) (A) (A) (A) (A)
                 (A) (A) (A) (A) (A) (A) (A) (A) (A) (A) (A) (A)
                 (A) (A) (A) (A) (A) (A) (A) (A) (A) (A) (A) (A)
                 (A) (A) (A) (A) (A) (A) (A) (A) (A) (A) (A) (A)
                 (A) (A) (A) (A) (A) (A) (A) (A) (A) (A) (A) (A)
                 (A) (A) (A) (A) (A) (A) (A) (A) (A) (A) (A) (A)
                 (A) (A) (A) (A) (A) (A) (A) (A) (A) (A) (A) (A)
                 (A) (A) (A) (A) (A) (A) (A) (A) (A) (A) (A) (A)
                 (A) (A) (A) (A) (A) (A) (A) (A) (A) (A) (A) (A)
                 (A) (A) (A) (A) (A) (A) (A) (A) (A) (A) (A) (A)
                 (A) (A) (A) (A) (A) (A) (A) (A) (A) (A) (A) (A)
                 (A) (A) (A) (A) (A) (A) (A) (A) (A) (A) (A) (A)
                 (A) (A) (A) (A) (A) (A) (A) (A) (A) (A) (A) (A)
                 (A) (A) (A) (A) (A) (A)
 The electronic state is 1-A.
 Alpha  occ. eigenvalues --  -18.79970  -9.95884  -9.91083  -9.90287  -9.89972
 Alpha  occ. eigenvalues --   -9.89799  -9.89532  -9.89007  -9.88882  -0.97212
 Alpha  occ. eigenvalues --   -0.78308  -0.70328  -0.69234  -0.63324  -0.60504
 Alpha  occ. eigenvalues --   -0.54847  -0.53415  -0.47516  -0.43986  -0.41848
 Alpha  occ. eigenvalues --   -0.38835  -0.38756  -0.36666  -0.35909  -0.35779
 Alpha  occ. eigenvalues --   -0.35084  -0.33903  -0.32476  -0.30855  -0.29394
 Alpha  occ. eigenvalues --   -0.28626  -0.22597  -0.19624
 Alpha virt. eigenvalues --   -0.04240  -0.02825   0.03072   0.03358   0.05117
 Alpha virt. eigenvalues --    0.06351   0.08174   0.09172   0.09492   0.09608
 Alpha virt. eigenvalues --    0.10671   0.12271   0.13516   0.13902   0.15317
 Alpha virt. eigenvalues --    0.17203   0.17411   0.17593   0.19139   0.19218
 Alpha virt. eigenvalues --    0.19345   0.21730   0.22151   0.23990   0.25102
 Alpha virt. eigenvalues --    0.25604   0.26970   0.27174   0.28671   0.29584
 Alpha virt. eigenvalues --    0.29947   0.30910   0.32729   0.33486   0.35033
 Alpha virt. eigenvalues --    0.35608   0.36728   0.37295   0.37909   0.40055
 Alpha virt. eigenvalues --    0.41012   0.41988   0.42231   0.42481   0.43326
 Alpha virt. eigenvalues --    0.43536   0.45012   0.47275   0.47288   0.47674
 Alpha virt. eigenvalues --    0.48986   0.49874   0.50447   0.51574   0.53935
 Alpha virt. eigenvalues --    0.55112   0.58172   0.59450   0.61829   0.63567
 Alpha virt. eigenvalues --    0.64304   0.66901   0.71128   0.72112   0.74284
 Alpha virt. eigenvalues --    0.76424   0.83600   0.88581   1.06741   1.09751
 Alpha virt. eigenvalues --    1.11724   1.17844   1.18162   1.19005   1.22281
 Alpha virt. eigenvalues --    1.22736   1.25020   1.25294   1.25588   1.26154
 Alpha virt. eigenvalues --    1.26652   1.28243   1.29159   1.30235   1.30495
 Alpha virt. eigenvalues --    1.33723   1.35278   1.36379   1.37735   1.38998
 Alpha virt. eigenvalues --    1.39141   1.39397   1.40192   1.40948   1.44298
 Alpha virt. eigenvalues --    1.46029   1.46819   1.46965   1.47538   1.47803
 Alpha virt. eigenvalues --    1.49395   1.50006   1.50725   1.52539   1.53421
 Alpha virt. eigenvalues --    1.55441   1.58243   1.59319   1.64212   1.69163
 Alpha virt. eigenvalues --    1.70022   1.71661   1.72417   1.72847   1.74226
 Alpha virt. eigenvalues --    1.74946   1.76272   1.76714   1.80158   1.82648
 Alpha virt. eigenvalues --    1.84325   1.86131   1.86610   1.88896   1.92879
 Alpha virt. eigenvalues --    1.97975   2.00046   2.01155   2.04601   2.07767
 Alpha virt. eigenvalues --    2.08343   2.12502   2.13663   2.17405   2.17637
 Alpha virt. eigenvalues --    2.19336   2.21271   2.22219   2.23604   2.25474
 Alpha virt. eigenvalues --    2.25941   2.27572   2.30608   2.33598   2.36510
 Alpha virt. eigenvalues --    2.37766   2.37959   2.40763   2.43921   2.45794
 Alpha virt. eigenvalues --    2.47325   2.47939   2.48480   2.51980   2.53383
 Alpha virt. eigenvalues --    2.55328   2.57871   2.57996   2.61865   2.62942
 Alpha virt. eigenvalues --    2.65372   2.69416   2.70570   2.74333   2.83441
 Alpha virt. eigenvalues --    2.85778   2.88830   2.91585   2.92583   2.98258
 Alpha virt. eigenvalues --    3.00192   3.02907   3.06226   3.07586   3.10256
 Alpha virt. eigenvalues --    3.11675   3.13558   3.17380   3.20057   3.20295
 Alpha virt. eigenvalues --    3.24245   3.26838   3.28565   3.31015   3.39936
 Alpha virt. eigenvalues --    3.50123   3.55090   3.93611   4.19496  21.02115
 Alpha virt. eigenvalues --   21.53750  21.60816  21.78704  21.79927  21.81417
 Alpha virt. eigenvalues --   21.88556  21.97044  43.14938
          Condensed to atoms (all electrons):
               1          2          3          4          5          6
     1  C    5.165525   0.322659  -0.077153   0.024744  -0.002421   0.000024
     2  C    0.322659   5.581718   0.343518   0.072781  -0.165434  -0.000871
     3  C   -0.077153   0.343518   5.338232   0.063809   0.135024   0.020070
     4  C    0.024744   0.072781   0.063809   5.813283   0.188601  -0.113623
     5  C   -0.002421  -0.165434   0.135024   0.188601   5.082275   0.367401
     6  O    0.000024  -0.000871   0.020070  -0.113623   0.367401   7.822046
     7  C    0.017169   0.025042  -0.107941  -0.064492   0.369938  -0.079049
     8  C   -0.141522   0.125308   0.032388  -0.128551   0.026627   0.010703
     9  C   -0.035448  -0.144656   0.018277  -0.002607   0.030951  -0.000160
    10  H    0.420191  -0.047655  -0.003007  -0.000449  -0.000080  -0.000002
    11  H    0.384183  -0.041415  -0.001257   0.000322   0.000330   0.000000
    12  H    0.421158  -0.048219  -0.003238  -0.000426  -0.000089  -0.000002
    13  H   -0.016449  -0.059711   0.415741  -0.046419   0.010226  -0.000141
    14  H   -0.000562   0.016021  -0.037971   0.423568  -0.067405  -0.005753
    15  H   -0.000005  -0.000266   0.005194  -0.022148  -0.026688   0.307110
    16  H   -0.000058   0.028177  -0.005903   0.018995  -0.079735   0.004775
    17  H   -0.001820  -0.006988   0.000863   0.000155  -0.001142   0.000004
    18  H    0.001937   0.016153  -0.001298   0.000181   0.001039  -0.000014
    19  H   -0.001206  -0.006937   0.000714   0.000203  -0.001221   0.000004
               7          8          9         10         11         12
     1  C    0.017169  -0.141522  -0.035448   0.420191   0.384183   0.421158
     2  C    0.025042   0.125308  -0.144656  -0.047655  -0.041415  -0.048219
     3  C   -0.107941   0.032388   0.018277  -0.003007  -0.001257  -0.003238
     4  C   -0.064492  -0.128551  -0.002607  -0.000449   0.000322  -0.000426
     5  C    0.369938   0.026627   0.030951  -0.000080   0.000330  -0.000089
     6  O   -0.079049   0.010703  -0.000160  -0.000002   0.000000  -0.000002
     7  C    5.311436   0.428935  -0.093701   0.001252  -0.001304   0.001308
     8  C    0.428935   5.409503   0.340225  -0.008673   0.016775  -0.008551
     9  C   -0.093701   0.340225   5.169103  -0.001970   0.001934  -0.002397
    10  H    0.001252  -0.008673  -0.001970   0.538946  -0.020641  -0.039074
    11  H   -0.001304   0.016775   0.001934  -0.020641   0.518376  -0.020593
    12  H    0.001308  -0.008551  -0.002397  -0.039074  -0.020593   0.538594
    13  H   -0.000383   0.022569  -0.000237   0.000059   0.005556   0.000049
    14  H    0.009675   0.000159   0.000012   0.000015  -0.000018   0.000015
    15  H    0.011536  -0.001632   0.000040   0.000000   0.000000   0.000000
    16  H    0.414681  -0.042256  -0.019630   0.000005   0.000005   0.000005
    17  H   -0.001757  -0.047478   0.419817   0.004209   0.000010  -0.001586
    18  H   -0.001265  -0.042384   0.385473   0.000014  -0.000022   0.000011
    19  H   -0.001161  -0.047128   0.418320  -0.001685   0.000014   0.004207
              13         14         15         16         17         18
     1  C   -0.016449  -0.000562  -0.000005  -0.000058  -0.001820   0.001937
     2  C   -0.059711   0.016021  -0.000266   0.028177  -0.006988   0.016153
     3  C    0.415741  -0.037971   0.005194  -0.005903   0.000863  -0.001298
     4  C   -0.046419   0.423568  -0.022148   0.018995   0.000155   0.000181
     5  C    0.010226  -0.067405  -0.026688  -0.079735  -0.001142   0.001039
     6  O   -0.000141  -0.005753   0.307110   0.004775   0.000004  -0.000014
     7  C   -0.000383   0.009675   0.011536   0.414681  -0.001757  -0.001265
     8  C    0.022569   0.000159  -0.001632  -0.042256  -0.047478  -0.042384
     9  C   -0.000237   0.000012   0.000040  -0.019630   0.419817   0.385473
    10  H    0.000059   0.000015   0.000000   0.000005   0.004209   0.000014
    11  H    0.005556  -0.000018   0.000000   0.000005   0.000010  -0.000022
    12  H    0.000049   0.000015   0.000000   0.000005  -0.001586   0.000011
    13  H    0.536875  -0.005433  -0.000045   0.000035   0.000006   0.000007
    14  H   -0.005433   0.510839   0.001035  -0.000217  -0.000000  -0.000001
    15  H   -0.000045   0.001035   0.399291  -0.000655  -0.000001   0.000001
    16  H    0.000035  -0.000217  -0.000655   0.533447   0.000218   0.005347
    17  H    0.000006  -0.000000  -0.000001   0.000218   0.529464  -0.020208
    18  H    0.000007  -0.000001   0.000001   0.005347  -0.020208   0.514502
    19  H    0.000003  -0.000000  -0.000001   0.000244  -0.035914  -0.020297
              19
     1  C   -0.001206
     2  C   -0.006937
     3  C    0.000714
     4  C    0.000203
     5  C   -0.001221
     6  O    0.000004
     7  C   -0.001161
     8  C   -0.047128
     9  C    0.418320
    10  H   -0.001685
    11  H    0.000014
    12  H    0.004207
    13  H    0.000003
    14  H   -0.000000
    15  H   -0.000001
    16  H    0.000244
    17  H   -0.035914
    18  H   -0.020297
    19  H    0.530234
 Mulliken charges:
               1
     1  C   -0.480947
     2  C   -0.009223
     3  C   -0.136063
     4  C   -0.227927
     5  C    0.131803
     6  O   -0.332523
     7  C   -0.239920
     8  C    0.054983
     9  C   -0.483346
    10  H    0.158546
    11  H    0.157743
    12  H    0.158828
    13  H    0.137694
    14  H    0.156023
    15  H    0.327233
    16  H    0.142518
    17  H    0.162148
    18  H    0.160823
    19  H    0.161606
 Sum of Mulliken charges =  -0.00000
 Mulliken charges with hydrogens summed into heavy atoms:
               1
     1  C   -0.005830
     2  C   -0.009223
     3  C    0.001631
     4  C   -0.071904
     5  C    0.131803
     6  O   -0.005290
     7  C   -0.097402
     8  C    0.054983
     9  C    0.001231
 Electronic spatial extent (au):  <R**2>=           1284.3420
 Charge=             -0.0000 electrons
 Dipole moment (field-independent basis, Debye):
    X=             -0.4588    Y=             -1.5464    Z=              0.0034  Tot=              1.6130
 Quadrupole moment (field-independent basis, Debye-Ang):
   XX=            -45.8077   YY=            -50.1297   ZZ=            -58.2436
   XY=             -6.9736   XZ=              0.0001   YZ=             -0.0001
 Traceless Quadrupole moment (field-independent basis, Debye-Ang):
   XX=              5.5860   YY=              1.2639   ZZ=             -6.8499
   XY=             -6.9736   XZ=              0.0001   YZ=             -0.0001
 Octapole moment (field-independent basis, Debye-Ang**2):
  XXX=             32.3786  YYY=             -1.9872  ZZZ=              0.0097  XYY=              2.6537
  XXY=            -22.4393  XXZ=              0.0118  XZZ=             -0.3582  YZZ=              2.5266
  YYZ=              0.0065  XYZ=             -0.0090
 Hexadecapole moment (field-independent basis, Debye-Ang**3):
 XXXX=           -949.2470 YYYY=           -511.4243 ZZZZ=            -79.6985 XXXY=            -78.0957
 XXXZ=              0.0379 YYYX=              3.3558 YYYZ=             -0.0499 ZZZX=             -0.0058
 ZZZY=              0.0260 XXYY=           -269.8477 XXZZ=           -194.8011 YYZZ=           -114.8844
 XXYZ=              0.0144 YYXZ=             -0.0233 ZZXY=             -1.6267
 N-N= 4.230367225765D+02 E-N=-1.745077160144D+03  KE= 3.843495794989D+02
 Unable to Open any file for archive entry.
 1\1\GINC-TCN1787\SP\RBP86\TZVP\C8H10O1\ELENAA\22-Feb-2021\0\\# BP86/TZ
 VP SCRF=COSMORS geom=CHECKPOINT guess=CHECKPOINT\\COSMO-file for #YCOX
 TKKNXUZSKD-UHFFFAOYSA-N\\0,1\C,0,-2.9231239065,1.6932051815,-3.2464003
 267\C,0,-2.6413403277,0.4045586716,-2.5117738786\C,0,-2.1935309756,0.4
 189576344,-1.183224887\C,0,-1.9238905359,-0.7592090998,-0.4762649366\C
 ,0,-2.1069174837,-1.9921095065,-1.1136497186\O,0,-1.8664887614,-3.2030
 463285,-0.495060715\C,0,-2.5542233751,-2.0292715434,-2.4421344474\C,0,
 -2.8234485759,-0.849280797,-3.1480208503\C,0,-3.3035750653,-0.91742785
 6,-4.577613183\H,0,-2.2992679116,1.7909809927,-4.1504619719\H,0,-2.727
 527526,2.5652336227,-2.6068135381\H,0,-3.9722207352,1.7492714995,-3.58
 16904367\H,0,-2.048689083,1.3789284937,-0.6801962402\H,0,-1.5756421806
 ,-0.7163698332,0.5589951018\H,0,-1.5625452058,-3.0414722013,0.41746799
 29\H,0,-2.6909825892,-3.0013466261,-2.9222201416\H,0,-2.6117353243,-0.
 3932567466,-5.2572995695\H,0,-3.3964540041,-1.9565046305,-4.9217130031
 \H,0,-4.2856064329,-0.4301709273,-4.6936152503\\Version=ES64L-G16RevC.
 01\State=1-A\HF=-386.2386532\RMSD=3.525e-09\Dipole=0.0810276,0.563815,
 0.2797846\Quadrupole=-3.7534706,-2.701596,6.4550666,-0.5010486,3.93041
 25,-1.2993732\PG=C01 [X(C8H10O1)]\\@
 The archive entry for this job was punched.


 THE MOST SERIOUS THREAT TO THE SURVIVAL OF MANKIND IS NOT NOW
 IGNORANCE IN THE TRADITIONAL SENSE,
 BUT A MORALLY NEUTRAL, AN INSENSITIVE OR INHIBITED HUMAN INTELLIGENCE.

                     -- MARGO JEFFERSON IN NEWSWEEK, SEPTEMBER 2, 1974
 Job cpu time:       0 days  0 hours  5 minutes 52.5 seconds.
 Elapsed time:       0 days  0 hours  0 minutes 11.5 seconds.
 File lengths (MBytes):  RWF=     48 Int=      0 D2E=      0 Chk=      8 Scr=      1
 Normal termination of Gaussian 16 at Mon Feb 22 21:31:16 2021.
