 Entering Gaussian System, Link 0=g16
 Input=YTRIOKYQEVFKGU-UHFFFAOYSA-M.gjf
 Output=YTRIOKYQEVFKGU-UHFFFAOYSA-M.log
 Initial command:
 /sw/arch/RedHatEnterpriseServer7/EB_production/2020/software/Gaussian/g16.c01/l1.exe "/scratch-local/elenaa.10684713/Gau-22858.inp" -scrdir="/scratch-local/elenaa.10684713/"
 Entering Link 1 = /sw/arch/RedHatEnterpriseServer7/EB_production/2020/software/Gaussian/g16.c01/l1.exe PID=     22861.
  
 Copyright (c) 1988-2019, Gaussian, Inc.  All Rights Reserved.
  
 This is part of the Gaussian(R) 16 program.  It is based on
 the Gaussian(R) 09 system (copyright 2009, Gaussian, Inc.),
 the Gaussian(R) 03 system (copyright 2003, Gaussian, Inc.),
 the Gaussian(R) 98 system (copyright 1998, Gaussian, Inc.),
 the Gaussian(R) 94 system (copyright 1995, Gaussian, Inc.),
 the Gaussian 92(TM) system (copyright 1992, Gaussian, Inc.),
 the Gaussian 90(TM) system (copyright 1990, Gaussian, Inc.),
 the Gaussian 88(TM) system (copyright 1988, Gaussian, Inc.),
 the Gaussian 86(TM) system (copyright 1986, Carnegie Mellon
 University), and the Gaussian 82(TM) system (copyright 1983,
 Carnegie Mellon University). Gaussian is a federally registered
 trademark of Gaussian, Inc.
  
 This software contains proprietary and confidential information,
 including trade secrets, belonging to Gaussian, Inc.
  
 This software is provided under written license and may be
 used, copied, transmitted, or stored only in accord with that
 written license.
  
 The following legend is applicable only to US Government
 contracts under FAR:
  
                    RESTRICTED RIGHTS LEGEND
  
 Use, reproduction and disclosure by the US Government is
 subject to restrictions as set forth in subparagraphs (a)
 and (c) of the Commercial Computer Software - Restricted
 Rights clause in FAR 52.227-19.
  
 Gaussian, Inc.
 340 Quinnipiac St., Bldg. 40, Wallingford CT 06492
  
  
 ---------------------------------------------------------------
 Warning -- This program may not be used in any manner that
 competes with the business of Gaussian, Inc. or will provide
 assistance to any competitor of Gaussian, Inc.  The licensee
 of this program is prohibited from giving any competitor of
 Gaussian, Inc. access to this program.  By using this program,
 the user acknowledges that Gaussian, Inc. is engaged in the
 business of creating and licensing software in the field of
 computational chemistry and represents and warrants to the
 licensee that it is not a competitor of Gaussian, Inc. and that
 it will not use this program in any manner prohibited above.
 ---------------------------------------------------------------
  

 Cite this work as:
 Gaussian 16, Revision C.01,
 M. J. Frisch, G. W. Trucks, H. B. Schlegel, G. E. Scuseria, 
 M. A. Robb, J. R. Cheeseman, G. Scalmani, V. Barone, 
 G. A. Petersson, H. Nakatsuji, X. Li, M. Caricato, A. V. Marenich, 
 J. Bloino, B. G. Janesko, R. Gomperts, B. Mennucci, H. P. Hratchian, 
 J. V. Ortiz, A. F. Izmaylov, J. L. Sonnenberg, D. Williams-Young, 
 F. Ding, F. Lipparini, F. Egidi, J. Goings, B. Peng, A. Petrone, 
 T. Henderson, D. Ranasinghe, V. G. Zakrzewski, J. Gao, N. Rega, 
 G. Zheng, W. Liang, M. Hada, M. Ehara, K. Toyota, R. Fukuda, 
 J. Hasegawa, M. Ishida, T. Nakajima, Y. Honda, O. Kitao, H. Nakai, 
 T. Vreven, K. Throssell, J. A. Montgomery, Jr., J. E. Peralta, 
 F. Ogliaro, M. J. Bearpark, J. J. Heyd, E. N. Brothers, K. N. Kudin, 
 V. N. Staroverov, T. A. Keith, R. Kobayashi, J. Normand, 
 K. Raghavachari, A. P. Rendell, J. C. Burant, S. S. Iyengar, 
 J. Tomasi, M. Cossi, J. M. Millam, M. Klene, C. Adamo, R. Cammi, 
 J. W. Ochterski, R. L. Martin, K. Morokuma, O. Farkas, 
 J. B. Foresman, and D. J. Fox, Gaussian, Inc., Wallingford CT, 2019.
 
 ******************************************
 Gaussian 16:  ES64L-G16RevC.01  3-Jul-2019
                21-Aug-2021 
 ******************************************
 %chk=YTRIOKYQEVFKGU-UHFFFAOYSA-M.chk
 %NProcShared=24
 Will use up to   24 processors via shared memory.
 -------------------------------------------------------------
 #P BP86/TZVP EmpiricalDispersion=GD3 SCRF=(Solvent=Water) Opt
 -------------------------------------------------------------
 1/18=20,19=15,26=3,38=1/1,3;
 2/9=110,12=2,17=6,18=5,40=1/2;
 3/5=19,7=101,11=2,25=1,30=1,70=2201,71=1,72=1,74=404,124=31/1,2,3;
 4//1;
 5/5=2,38=5,53=1/2;
 6/7=2,8=2,9=2,10=2,28=1/1;
 7//1,2,3,16;
 1/18=20,19=15,26=3/3(2);
 2/9=110/2;
 99//99;
 2/9=110/2;
 3/5=19,7=101,11=2,25=1,30=1,70=2205,71=1,72=1,74=404,124=31/1,2,3;
 4/5=5,16=3,69=1/1;
 5/5=2,38=5,53=1/2;
 7//1,2,3,16;
 1/18=20,19=15,26=3/3(-5);
 2/9=110/2;
 6/7=2,8=2,9=2,10=2,19=2,28=1/1;
 99/9=1/99;
 Leave Link    1 at Sat Aug 21 09:34:12 2021, MaxMem=           0 cpu:               1.6 elap:               0.1
 (Enter /sw/arch/RedHatEnterpriseServer7/EB_production/2020/software/Gaussian/g16.c01/l101.exe)
 -------------------------------------
 Particle #YTRIOKYQEVFKGU-UHFFFAOYSA-M
 -------------------------------------
 Symbolic Z-matrix:
 Charge =  0 Multiplicity = 1
 C                     2.92025   0.29246  -2.28491 
 C                     1.72194  -0.46272  -1.71424 
 C                     1.49064  -0.09293  -0.22613 
 N                     0.20761  -0.58917   0.39286 
 C                     0.20306  -0.37964   1.89 
 C                     0.99114   0.84366   2.4298 
 C                     0.68771   1.0837    3.90649 
 C                     0.06668  -2.06157   0.09568 
 C                    -1.10411  -2.79808   0.80283 
 C                    -1.0612   -4.29456   0.50075 
 C                    -0.98198   0.10992  -0.22129 
 C                    -1.00986   1.62363  -0.09234 
 C                    -1.69257   2.23287   0.97812 
 C                    -1.74165   3.62571   1.08573 
 C                    -1.13279   4.42495   0.11577 
 C                    -0.48379   3.83268  -0.96987 
 C                    -0.4318    2.4402   -1.08162 
 Cl                    3.00038  -2.32785   2.07306 
 H                     3.08657  -0.01436  -3.33911 
 H                     3.83593   0.06294  -1.69926 
 H                     2.73393   1.38739  -2.26081 
 H                     0.8402   -0.22547  -2.33966 
 H                     1.93736  -1.54843  -1.80796 
 H                     1.571     1.00876  -0.13402 
 H                     2.36072  -0.48777   0.32817 
 H                     0.62261  -1.2606    2.41357 
 H                    -0.84267  -0.31522   2.266 
 H                     0.75131   1.77056   1.87725 
 H                     2.08288   0.66357   2.33456 
 H                     1.29126   1.93917   4.27664 
 H                     0.94297   0.18308   4.50465 
 H                    -0.38803   1.32438   4.04435 
 H                    -0.08756  -2.22343  -0.99462 
 H                     1.00549  -2.59364   0.34555 
 H                    -2.08234  -2.41782   0.44626 
 H                    -1.06252  -2.68104   1.90414 
 H                    -1.13694  -4.47094  -0.59346 
 H                    -0.11555  -4.73805   0.87924 
 H                    -1.91389  -4.80074   1.00082 
 H                    -1.92591  -0.25922   0.23136 
 H                    -1.09005  -0.14949  -1.29587 
 H                    -2.17994   1.63106   1.73434 
 H                    -2.25562   4.08544   1.91992 
 H                    -1.17286   5.50325   0.19987 
 H                    -0.02558   4.45305  -1.72923 
 H                     0.0585    2.00235  -1.94013 
 
 Add virtual bond connecting atoms H25        and Cl18       Dist= 4.94D+00.
 Add virtual bond connecting atoms H26        and Cl18       Dist= 4.97D+00.
 Add virtual bond connecting atoms H34        and Cl18       Dist= 5.01D+00.
 ITRead=  0  0  0  0  0  0  0  0  0  0  0  0  0  0  0  0  0  0  0  0
 ITRead=  0  0  0  0  0  0  0  0  0  0  0  0  0  0  0  0  0  0  0  0
 ITRead=  0  0  0  0  0  0
 MicOpt= -1 -1 -1 -1 -1 -1 -1 -1 -1 -1 -1 -1 -1 -1 -1 -1 -1 -1 -1 -1
 MicOpt= -1 -1 -1 -1 -1 -1 -1 -1 -1 -1 -1 -1 -1 -1 -1 -1 -1 -1 -1 -1
 MicOpt= -1 -1 -1 -1 -1 -1
 NAtoms=     46 NQM=       46 NQMF=       0 NMMI=      0 NMMIF=      0
                NMic=       0 NMicF=      0.
                    Isotopes and Nuclear Properties:
 (Nuclear quadrupole moments (NQMom) in fm**2, nuclear magnetic moments (NMagM)
  in nuclear magnetons)

  Atom         1           2           3           4           5           6           7           8           9          10
 IAtWgt=          12          12          12          14          12          12          12          12          12          12
 AtmWgt=  12.0000000  12.0000000  12.0000000  14.0030740  12.0000000  12.0000000  12.0000000  12.0000000  12.0000000  12.0000000
 NucSpn=           0           0           0           2           0           0           0           0           0           0
 AtZEff=  -0.0000000  -0.0000000  -0.0000000  -0.0000000  -0.0000000  -0.0000000  -0.0000000  -0.0000000  -0.0000000  -0.0000000
 NQMom=    0.0000000   0.0000000   0.0000000   2.0440000   0.0000000   0.0000000   0.0000000   0.0000000   0.0000000   0.0000000
 NMagM=    0.0000000   0.0000000   0.0000000   0.4037610   0.0000000   0.0000000   0.0000000   0.0000000   0.0000000   0.0000000
 AtZNuc=   6.0000000   6.0000000   6.0000000   7.0000000   6.0000000   6.0000000   6.0000000   6.0000000   6.0000000   6.0000000

  Atom        11          12          13          14          15          16          17          18          19          20
 IAtWgt=          12          12          12          12          12          12          12          35           1           1
 AtmWgt=  12.0000000  12.0000000  12.0000000  12.0000000  12.0000000  12.0000000  12.0000000  34.9688527   1.0078250   1.0078250
 NucSpn=           0           0           0           0           0           0           0           3           1           1
 AtZEff=  -0.0000000  -0.0000000  -0.0000000  -0.0000000  -0.0000000  -0.0000000  -0.0000000  -0.0000000  -0.0000000  -0.0000000
 NQMom=    0.0000000   0.0000000   0.0000000   0.0000000   0.0000000   0.0000000   0.0000000  -8.1650000   0.0000000   0.0000000
 NMagM=    0.0000000   0.0000000   0.0000000   0.0000000   0.0000000   0.0000000   0.0000000   0.8218740   2.7928460   2.7928460
 AtZNuc=   6.0000000   6.0000000   6.0000000   6.0000000   6.0000000   6.0000000   6.0000000  17.0000000   1.0000000   1.0000000

  Atom        21          22          23          24          25          26          27          28          29          30
 IAtWgt=           1           1           1           1           1           1           1           1           1           1
 AtmWgt=   1.0078250   1.0078250   1.0078250   1.0078250   1.0078250   1.0078250   1.0078250   1.0078250   1.0078250   1.0078250
 NucSpn=           1           1           1           1           1           1           1           1           1           1
 AtZEff=  -0.0000000  -0.0000000  -0.0000000  -0.0000000  -0.0000000  -0.0000000  -0.0000000  -0.0000000  -0.0000000  -0.0000000
 NQMom=    0.0000000   0.0000000   0.0000000   0.0000000   0.0000000   0.0000000   0.0000000   0.0000000   0.0000000   0.0000000
 NMagM=    2.7928460   2.7928460   2.7928460   2.7928460   2.7928460   2.7928460   2.7928460   2.7928460   2.7928460   2.7928460
 AtZNuc=   1.0000000   1.0000000   1.0000000   1.0000000   1.0000000   1.0000000   1.0000000   1.0000000   1.0000000   1.0000000

  Atom        31          32          33          34          35          36          37          38          39          40
 IAtWgt=           1           1           1           1           1           1           1           1           1           1
 AtmWgt=   1.0078250   1.0078250   1.0078250   1.0078250   1.0078250   1.0078250   1.0078250   1.0078250   1.0078250   1.0078250
 NucSpn=           1           1           1           1           1           1           1           1           1           1
 AtZEff=  -0.0000000  -0.0000000  -0.0000000  -0.0000000  -0.0000000  -0.0000000  -0.0000000  -0.0000000  -0.0000000  -0.0000000
 NQMom=    0.0000000   0.0000000   0.0000000   0.0000000   0.0000000   0.0000000   0.0000000   0.0000000   0.0000000   0.0000000
 NMagM=    2.7928460   2.7928460   2.7928460   2.7928460   2.7928460   2.7928460   2.7928460   2.7928460   2.7928460   2.7928460
 AtZNuc=   1.0000000   1.0000000   1.0000000   1.0000000   1.0000000   1.0000000   1.0000000   1.0000000   1.0000000   1.0000000

  Atom        41          42          43          44          45          46
 IAtWgt=           1           1           1           1           1           1
 AtmWgt=   1.0078250   1.0078250   1.0078250   1.0078250   1.0078250   1.0078250
 NucSpn=           1           1           1           1           1           1
 AtZEff=  -0.0000000  -0.0000000  -0.0000000  -0.0000000  -0.0000000  -0.0000000
 NQMom=    0.0000000   0.0000000   0.0000000   0.0000000   0.0000000   0.0000000
 NMagM=    2.7928460   2.7928460   2.7928460   2.7928460   2.7928460   2.7928460
 AtZNuc=   1.0000000   1.0000000   1.0000000   1.0000000   1.0000000   1.0000000
 Leave Link  101 at Sat Aug 21 09:34:12 2021, MaxMem=   104857600 cpu:               2.0 elap:               0.1
 (Enter /sw/arch/RedHatEnterpriseServer7/EB_production/2020/software/Gaussian/g16.c01/l103.exe)

 GradGradGradGradGradGradGradGradGradGradGradGradGradGradGradGradGradGrad
 Berny optimization.
 Initialization pass.
                           ----------------------------
                           !    Initial Parameters    !
                           ! (Angstroms and Degrees)  !
 --------------------------                            --------------------------
 ! Name  Definition              Value          Derivative Info.                !
 --------------------------------------------------------------------------------
 ! R1    R(1,2)                  1.5271         estimate D2E/DX2                !
 ! R2    R(1,19)                 1.1105         estimate D2E/DX2                !
 ! R3    R(1,20)                 1.1109         estimate D2E/DX2                !
 ! R4    R(1,21)                 1.1109         estimate D2E/DX2                !
 ! R5    R(2,3)                  1.5507         estimate D2E/DX2                !
 ! R6    R(2,22)                 1.1068         estimate D2E/DX2                !
 ! R7    R(2,23)                 1.1108         estimate D2E/DX2                !
 ! R8    R(3,4)                  1.5085         estimate D2E/DX2                !
 ! R9    R(3,24)                 1.1085         estimate D2E/DX2                !
 ! R10   R(3,25)                 1.1046         estimate D2E/DX2                !
 ! R11   R(4,5)                  1.5117         estimate D2E/DX2                !
 ! R12   R(4,8)                  1.5087         estimate D2E/DX2                !
 ! R13   R(4,11)                 1.5103         estimate D2E/DX2                !
 ! R14   R(5,6)                  1.5521         estimate D2E/DX2                !
 ! R15   R(5,26)                 1.1074         estimate D2E/DX2                !
 ! R16   R(5,27)                 1.1131         estimate D2E/DX2                !
 ! R17   R(6,7)                  1.5265         estimate D2E/DX2                !
 ! R18   R(6,28)                 1.1054         estimate D2E/DX2                !
 ! R19   R(6,29)                 1.1106         estimate D2E/DX2                !
 ! R20   R(7,30)                 1.1105         estimate D2E/DX2                !
 ! R21   R(7,31)                 1.1109         estimate D2E/DX2                !
 ! R22   R(7,32)                 1.1109         estimate D2E/DX2                !
 ! R23   R(8,9)                  1.5535         estimate D2E/DX2                !
 ! R24   R(8,33)                 1.113          estimate D2E/DX2                !
 ! R25   R(8,34)                 1.1077         estimate D2E/DX2                !
 ! R26   R(9,10)                 1.5273         estimate D2E/DX2                !
 ! R27   R(9,35)                 1.1085         estimate D2E/DX2                !
 ! R28   R(9,36)                 1.1083         estimate D2E/DX2                !
 ! R29   R(10,37)                1.1109         estimate D2E/DX2                !
 ! R30   R(10,38)                1.1109         estimate D2E/DX2                !
 ! R31   R(10,39)                1.1106         estimate D2E/DX2                !
 ! R32   R(11,12)                1.5194         estimate D2E/DX2                !
 ! R33   R(11,40)                1.11           estimate D2E/DX2                !
 ! R34   R(11,41)                1.1107         estimate D2E/DX2                !
 ! R35   R(12,13)                1.4082         estimate D2E/DX2                !
 ! R36   R(12,17)                1.407          estimate D2E/DX2                !
 ! R37   R(13,14)                1.3978         estimate D2E/DX2                !
 ! R38   R(13,42)                1.0824         estimate D2E/DX2                !
 ! R39   R(14,15)                1.3965         estimate D2E/DX2                !
 ! R40   R(14,43)                1.0823         estimate D2E/DX2                !
 ! R41   R(15,16)                1.3966         estimate D2E/DX2                !
 ! R42   R(15,44)                1.0823         estimate D2E/DX2                !
 ! R43   R(16,17)                1.3979         estimate D2E/DX2                !
 ! R44   R(16,45)                1.0823         estimate D2E/DX2                !
 ! R45   R(17,46)                1.0813         estimate D2E/DX2                !
 ! R46   R(18,25)                2.6153         estimate D2E/DX2                !
 ! R47   R(18,26)                2.6284         estimate D2E/DX2                !
 ! R48   R(18,34)                2.6523         estimate D2E/DX2                !
 ! A1    A(2,1,19)             109.6132         estimate D2E/DX2                !
 ! A2    A(2,1,20)             110.3426         estimate D2E/DX2                !
 ! A3    A(2,1,21)             110.3462         estimate D2E/DX2                !
 ! A4    A(19,1,20)            108.6579         estimate D2E/DX2                !
 ! A5    A(19,1,21)            108.5437         estimate D2E/DX2                !
 ! A6    A(20,1,21)            109.2953         estimate D2E/DX2                !
 ! A7    A(1,2,3)              110.9613         estimate D2E/DX2                !
 ! A8    A(1,2,22)             107.938          estimate D2E/DX2                !
 ! A9    A(1,2,23)             107.4357         estimate D2E/DX2                !
 ! A10   A(3,2,22)             111.8598         estimate D2E/DX2                !
 ! A11   A(3,2,23)             110.0571         estimate D2E/DX2                !
 ! A12   A(22,2,23)            108.4417         estimate D2E/DX2                !
 ! A13   A(2,3,4)              116.2434         estimate D2E/DX2                !
 ! A14   A(2,3,24)             107.8145         estimate D2E/DX2                !
 ! A15   A(2,3,25)             106.1899         estimate D2E/DX2                !
 ! A16   A(4,3,24)             110.7637         estimate D2E/DX2                !
 ! A17   A(4,3,25)             110.2706         estimate D2E/DX2                !
 ! A18   A(24,3,25)            104.8604         estimate D2E/DX2                !
 ! A19   A(3,4,5)              111.305          estimate D2E/DX2                !
 ! A20   A(3,4,8)              108.6432         estimate D2E/DX2                !
 ! A21   A(3,4,11)             110.5362         estimate D2E/DX2                !
 ! A22   A(5,4,8)              109.2725         estimate D2E/DX2                !
 ! A23   A(5,4,11)             109.6448         estimate D2E/DX2                !
 ! A24   A(8,4,11)             107.3418         estimate D2E/DX2                !
 ! A25   A(4,5,6)              116.8818         estimate D2E/DX2                !
 ! A26   A(4,5,26)             110.9066         estimate D2E/DX2                !
 ! A27   A(4,5,27)             110.2044         estimate D2E/DX2                !
 ! A28   A(6,5,26)             105.677          estimate D2E/DX2                !
 ! A29   A(6,5,27)             108.2954         estimate D2E/DX2                !
 ! A30   A(26,5,27)            104.0198         estimate D2E/DX2                !
 ! A31   A(5,6,7)              111.0661         estimate D2E/DX2                !
 ! A32   A(5,6,28)             112.1401         estimate D2E/DX2                !
 ! A33   A(5,6,29)             109.9691         estimate D2E/DX2                !
 ! A34   A(7,6,28)             107.972          estimate D2E/DX2                !
 ! A35   A(7,6,29)             107.6892         estimate D2E/DX2                !
 ! A36   A(28,6,29)            107.8415         estimate D2E/DX2                !
 ! A37   A(6,7,30)             109.606          estimate D2E/DX2                !
 ! A38   A(6,7,31)             110.3476         estimate D2E/DX2                !
 ! A39   A(6,7,32)             110.2792         estimate D2E/DX2                !
 ! A40   A(30,7,31)            108.6739         estimate D2E/DX2                !
 ! A41   A(30,7,32)            108.5439         estimate D2E/DX2                !
 ! A42   A(31,7,32)            109.3496         estimate D2E/DX2                !
 ! A43   A(4,8,9)              116.3234         estimate D2E/DX2                !
 ! A44   A(4,8,33)             110.355          estimate D2E/DX2                !
 ! A45   A(4,8,34)             110.1931         estimate D2E/DX2                !
 ! A46   A(9,8,33)             105.8153         estimate D2E/DX2                !
 ! A47   A(9,8,34)             107.9602         estimate D2E/DX2                !
 ! A48   A(33,8,34)            105.5806         estimate D2E/DX2                !
 ! A49   A(8,9,10)             110.6915         estimate D2E/DX2                !
 ! A50   A(8,9,35)             110.8577         estimate D2E/DX2                !
 ! A51   A(8,9,36)             111.9623         estimate D2E/DX2                !
 ! A52   A(10,9,35)            107.2959         estimate D2E/DX2                !
 ! A53   A(10,9,36)            107.3952         estimate D2E/DX2                !
 ! A54   A(35,9,36)            108.454          estimate D2E/DX2                !
 ! A55   A(9,10,37)            110.3936         estimate D2E/DX2                !
 ! A56   A(9,10,38)            110.3457         estimate D2E/DX2                !
 ! A57   A(9,10,39)            109.6308         estimate D2E/DX2                !
 ! A58   A(37,10,38)           109.2823         estimate D2E/DX2                !
 ! A59   A(37,10,39)           108.5905         estimate D2E/DX2                !
 ! A60   A(38,10,39)           108.5542         estimate D2E/DX2                !
 ! A61   A(4,11,12)            116.1722         estimate D2E/DX2                !
 ! A62   A(4,11,40)            110.4898         estimate D2E/DX2                !
 ! A63   A(4,11,41)            111.2192         estimate D2E/DX2                !
 ! A64   A(12,11,40)           106.3249         estimate D2E/DX2                !
 ! A65   A(12,11,41)           108.2397         estimate D2E/DX2                !
 ! A66   A(40,11,41)           103.5391         estimate D2E/DX2                !
 ! A67   A(11,12,13)           120.2914         estimate D2E/DX2                !
 ! A68   A(11,12,17)           120.7281         estimate D2E/DX2                !
 ! A69   A(13,12,17)           118.8529         estimate D2E/DX2                !
 ! A70   A(12,13,14)           120.4385         estimate D2E/DX2                !
 ! A71   A(12,13,42)           120.5854         estimate D2E/DX2                !
 ! A72   A(14,13,42)           118.9741         estimate D2E/DX2                !
 ! A73   A(13,14,15)           120.0976         estimate D2E/DX2                !
 ! A74   A(13,14,43)           119.9504         estimate D2E/DX2                !
 ! A75   A(15,14,43)           119.9515         estimate D2E/DX2                !
 ! A76   A(14,15,16)           119.9856         estimate D2E/DX2                !
 ! A77   A(14,15,44)           120.0046         estimate D2E/DX2                !
 ! A78   A(16,15,44)           120.0067         estimate D2E/DX2                !
 ! A79   A(15,16,17)           120.1219         estimate D2E/DX2                !
 ! A80   A(15,16,45)           119.9352         estimate D2E/DX2                !
 ! A81   A(17,16,45)           119.9418         estimate D2E/DX2                !
 ! A82   A(12,17,16)           120.4389         estimate D2E/DX2                !
 ! A83   A(12,17,46)           120.6339         estimate D2E/DX2                !
 ! A84   A(16,17,46)           118.9272         estimate D2E/DX2                !
 ! A85   A(25,18,26)            65.1335         estimate D2E/DX2                !
 ! A86   A(25,18,34)            56.7688         estimate D2E/DX2                !
 ! A87   A(26,18,34)            56.2657         estimate D2E/DX2                !
 ! A88   A(3,25,18)            141.164          estimate D2E/DX2                !
 ! A89   A(5,26,18)            127.1933         estimate D2E/DX2                !
 ! A90   A(8,34,18)            137.4165         estimate D2E/DX2                !
 ! D1    D(19,1,2,3)           178.0831         estimate D2E/DX2                !
 ! D2    D(19,1,2,22)          -59.0212         estimate D2E/DX2                !
 ! D3    D(19,1,2,23)           57.7344         estimate D2E/DX2                !
 ! D4    D(20,1,2,3)            58.4575         estimate D2E/DX2                !
 ! D5    D(20,1,2,22)         -178.6468         estimate D2E/DX2                !
 ! D6    D(20,1,2,23)          -61.8912         estimate D2E/DX2                !
 ! D7    D(21,1,2,3)           -62.43           estimate D2E/DX2                !
 ! D8    D(21,1,2,22)           60.4657         estimate D2E/DX2                !
 ! D9    D(21,1,2,23)          177.2213         estimate D2E/DX2                !
 ! D10   D(1,2,3,4)            170.1698         estimate D2E/DX2                !
 ! D11   D(1,2,3,24)            45.1692         estimate D2E/DX2                !
 ! D12   D(1,2,3,25)           -66.7812         estimate D2E/DX2                !
 ! D13   D(22,2,3,4)            49.5689         estimate D2E/DX2                !
 ! D14   D(22,2,3,24)          -75.4317         estimate D2E/DX2                !
 ! D15   D(22,2,3,25)          172.618          estimate D2E/DX2                !
 ! D16   D(23,2,3,4)           -71.0499         estimate D2E/DX2                !
 ! D17   D(23,2,3,24)          163.9495         estimate D2E/DX2                !
 ! D18   D(23,2,3,25)           51.9992         estimate D2E/DX2                !
 ! D19   D(2,3,4,5)            170.1071         estimate D2E/DX2                !
 ! D20   D(2,3,4,8)             49.7451         estimate D2E/DX2                !
 ! D21   D(2,3,4,11)           -67.791          estimate D2E/DX2                !
 ! D22   D(24,3,4,5)           -66.409          estimate D2E/DX2                !
 ! D23   D(24,3,4,8)           173.229          estimate D2E/DX2                !
 ! D24   D(24,3,4,11)           55.6929         estimate D2E/DX2                !
 ! D25   D(25,3,4,5)            49.2119         estimate D2E/DX2                !
 ! D26   D(25,3,4,8)           -71.1501         estimate D2E/DX2                !
 ! D27   D(25,3,4,11)          171.3138         estimate D2E/DX2                !
 ! D28   D(2,3,25,18)         -111.3052         estimate D2E/DX2                !
 ! D29   D(4,3,25,18)           15.4269         estimate D2E/DX2                !
 ! D30   D(24,3,25,18)         134.7014         estimate D2E/DX2                !
 ! D31   D(3,4,5,6)             30.9432         estimate D2E/DX2                !
 ! D32   D(3,4,5,26)           -90.2514         estimate D2E/DX2                !
 ! D33   D(3,4,5,27)           155.1086         estimate D2E/DX2                !
 ! D34   D(8,4,5,6)            150.9335         estimate D2E/DX2                !
 ! D35   D(8,4,5,26)            29.7388         estimate D2E/DX2                !
 ! D36   D(8,4,5,27)           -84.9012         estimate D2E/DX2                !
 ! D37   D(11,4,5,6)           -91.6732         estimate D2E/DX2                !
 ! D38   D(11,4,5,26)          147.1321         estimate D2E/DX2                !
 ! D39   D(11,4,5,27)           32.4921         estimate D2E/DX2                !
 ! D40   D(3,4,8,9)            172.5019         estimate D2E/DX2                !
 ! D41   D(3,4,8,33)           -66.9761         estimate D2E/DX2                !
 ! D42   D(3,4,8,34)            49.2361         estimate D2E/DX2                !
 ! D43   D(5,4,8,9)             50.8886         estimate D2E/DX2                !
 ! D44   D(5,4,8,33)           171.4107         estimate D2E/DX2                !
 ! D45   D(5,4,8,34)           -72.3771         estimate D2E/DX2                !
 ! D46   D(11,4,8,9)           -67.9466         estimate D2E/DX2                !
 ! D47   D(11,4,8,33)           52.5755         estimate D2E/DX2                !
 ! D48   D(11,4,8,34)          168.7877         estimate D2E/DX2                !
 ! D49   D(3,4,11,12)          -59.067          estimate D2E/DX2                !
 ! D50   D(3,4,11,40)          179.7351         estimate D2E/DX2                !
 ! D51   D(3,4,11,41)           65.3302         estimate D2E/DX2                !
 ! D52   D(5,4,11,12)           64.0048         estimate D2E/DX2                !
 ! D53   D(5,4,11,40)          -57.1931         estimate D2E/DX2                !
 ! D54   D(5,4,11,41)         -171.598          estimate D2E/DX2                !
 ! D55   D(8,4,11,12)         -177.4002         estimate D2E/DX2                !
 ! D56   D(8,4,11,40)           61.4019         estimate D2E/DX2                !
 ! D57   D(8,4,11,41)          -53.003          estimate D2E/DX2                !
 ! D58   D(4,5,6,7)            169.3067         estimate D2E/DX2                !
 ! D59   D(4,5,6,28)            48.3964         estimate D2E/DX2                !
 ! D60   D(4,5,6,29)           -71.5887         estimate D2E/DX2                !
 ! D61   D(26,5,6,7)           -66.789          estimate D2E/DX2                !
 ! D62   D(26,5,6,28)          172.3008         estimate D2E/DX2                !
 ! D63   D(26,5,6,29)           52.3157         estimate D2E/DX2                !
 ! D64   D(27,5,6,7)            44.1766         estimate D2E/DX2                !
 ! D65   D(27,5,6,28)          -76.7336         estimate D2E/DX2                !
 ! D66   D(27,5,6,29)          163.2813         estimate D2E/DX2                !
 ! D67   D(4,5,26,18)           57.2095         estimate D2E/DX2                !
 ! D68   D(6,5,26,18)          -70.3748         estimate D2E/DX2                !
 ! D69   D(27,5,26,18)         175.663          estimate D2E/DX2                !
 ! D70   D(5,6,7,30)           177.923          estimate D2E/DX2                !
 ! D71   D(5,6,7,31)            58.2792         estimate D2E/DX2                !
 ! D72   D(5,6,7,32)           -62.6358         estimate D2E/DX2                !
 ! D73   D(28,6,7,30)          -58.7423         estimate D2E/DX2                !
 ! D74   D(28,6,7,31)         -178.3862         estimate D2E/DX2                !
 ! D75   D(28,6,7,32)           60.6988         estimate D2E/DX2                !
 ! D76   D(29,6,7,30)           57.4599         estimate D2E/DX2                !
 ! D77   D(29,6,7,31)          -62.184          estimate D2E/DX2                !
 ! D78   D(29,6,7,32)          176.901          estimate D2E/DX2                !
 ! D79   D(4,8,9,10)          -175.5189         estimate D2E/DX2                !
 ! D80   D(4,8,9,35)            65.5339         estimate D2E/DX2                !
 ! D81   D(4,8,9,36)           -55.7244         estimate D2E/DX2                !
 ! D82   D(33,8,9,10)           61.5598         estimate D2E/DX2                !
 ! D83   D(33,8,9,35)          -57.3874         estimate D2E/DX2                !
 ! D84   D(33,8,9,36)         -178.6456         estimate D2E/DX2                !
 ! D85   D(34,8,9,10)          -51.1014         estimate D2E/DX2                !
 ! D86   D(34,8,9,35)         -170.0486         estimate D2E/DX2                !
 ! D87   D(34,8,9,36)           68.6932         estimate D2E/DX2                !
 ! D88   D(4,8,34,18)           29.9045         estimate D2E/DX2                !
 ! D89   D(9,8,34,18)          -98.113          estimate D2E/DX2                !
 ! D90   D(33,8,34,18)         149.0684         estimate D2E/DX2                !
 ! D91   D(8,9,10,37)          -59.5157         estimate D2E/DX2                !
 ! D92   D(8,9,10,38)           61.3886         estimate D2E/DX2                !
 ! D93   D(8,9,10,39)         -179.1008         estimate D2E/DX2                !
 ! D94   D(35,9,10,37)          61.5642         estimate D2E/DX2                !
 ! D95   D(35,9,10,38)        -177.5315         estimate D2E/DX2                !
 ! D96   D(35,9,10,39)         -58.0209         estimate D2E/DX2                !
 ! D97   D(36,9,10,37)         177.9861         estimate D2E/DX2                !
 ! D98   D(36,9,10,38)         -61.1096         estimate D2E/DX2                !
 ! D99   D(36,9,10,39)          58.401          estimate D2E/DX2                !
 ! D100  D(4,11,12,13)         -93.7384         estimate D2E/DX2                !
 ! D101  D(4,11,12,17)          90.4144         estimate D2E/DX2                !
 ! D102  D(40,11,12,13)         29.6532         estimate D2E/DX2                !
 ! D103  D(40,11,12,17)       -146.194          estimate D2E/DX2                !
 ! D104  D(41,11,12,13)        140.3469         estimate D2E/DX2                !
 ! D105  D(41,11,12,17)        -35.5003         estimate D2E/DX2                !
 ! D106  D(11,12,13,14)       -178.7818         estimate D2E/DX2                !
 ! D107  D(11,12,13,42)          1.7394         estimate D2E/DX2                !
 ! D108  D(17,12,13,14)         -2.8573         estimate D2E/DX2                !
 ! D109  D(17,12,13,42)        177.6638         estimate D2E/DX2                !
 ! D110  D(11,12,17,16)        178.7482         estimate D2E/DX2                !
 ! D111  D(11,12,17,46)         -1.1952         estimate D2E/DX2                !
 ! D112  D(13,12,17,16)          2.8421         estimate D2E/DX2                !
 ! D113  D(13,12,17,46)       -177.1012         estimate D2E/DX2                !
 ! D114  D(12,13,14,15)          1.1794         estimate D2E/DX2                !
 ! D115  D(12,13,14,43)       -179.0624         estimate D2E/DX2                !
 ! D116  D(42,13,14,15)       -179.3335         estimate D2E/DX2                !
 ! D117  D(42,13,14,43)          0.4247         estimate D2E/DX2                !
 ! D118  D(13,14,15,16)          0.5609         estimate D2E/DX2                !
 ! D119  D(13,14,15,44)        179.9175         estimate D2E/DX2                !
 ! D120  D(43,14,15,16)       -179.1973         estimate D2E/DX2                !
 ! D121  D(43,14,15,44)          0.1593         estimate D2E/DX2                !
 ! D122  D(14,15,16,17)         -0.5762         estimate D2E/DX2                !
 ! D123  D(14,15,16,45)        179.0435         estimate D2E/DX2                !
 ! D124  D(44,15,16,17)       -179.9328         estimate D2E/DX2                !
 ! D125  D(44,15,16,45)         -0.3131         estimate D2E/DX2                !
 ! D126  D(15,16,17,12)         -1.1501         estimate D2E/DX2                !
 ! D127  D(15,16,17,46)        178.7942         estimate D2E/DX2                !
 ! D128  D(45,16,17,12)        179.2302         estimate D2E/DX2                !
 ! D129  D(45,16,17,46)         -0.8255         estimate D2E/DX2                !
 ! D130  D(26,18,25,3)         -35.1637         estimate D2E/DX2                !
 ! D131  D(34,18,25,3)          29.4889         estimate D2E/DX2                !
 ! D132  D(25,18,26,5)          -9.0926         estimate D2E/DX2                !
 ! D133  D(34,18,26,5)         -74.4591         estimate D2E/DX2                !
 ! D134  D(25,18,34,8)         -58.9097         estimate D2E/DX2                !
 ! D135  D(26,18,34,8)          21.477          estimate D2E/DX2                !
 --------------------------------------------------------------------------------
 Trust Radius=3.00D-01 FncErr=1.00D-07 GrdErr=1.00D-06 EigMax=2.50D+02 EigMin=1.00D-04
 Number of steps in this run=    276 maximum allowed number of steps=    276.
 GradGradGradGradGradGradGradGradGradGradGradGradGradGradGradGradGradGrad

 Leave Link  103 at Sat Aug 21 09:34:12 2021, MaxMem=   104857600 cpu:               0.6 elap:               0.1
 (Enter /sw/arch/RedHatEnterpriseServer7/EB_production/2020/software/Gaussian/g16.c01/l202.exe)
                          Input orientation:                          
 ---------------------------------------------------------------------
 Center     Atomic      Atomic             Coordinates (Angstroms)
 Number     Number       Type             X           Y           Z
 ---------------------------------------------------------------------
      1          6           0        2.920246    0.292457   -2.284907
      2          6           0        1.721937   -0.462718   -1.714239
      3          6           0        1.490640   -0.092934   -0.226129
      4          7           0        0.207608   -0.589169    0.392855
      5          6           0        0.203063   -0.379641    1.889996
      6          6           0        0.991142    0.843656    2.429797
      7          6           0        0.687705    1.083696    3.906487
      8          6           0        0.066677   -2.061575    0.095678
      9          6           0       -1.104110   -2.798078    0.802829
     10          6           0       -1.061198   -4.294564    0.500750
     11          6           0       -0.981981    0.109918   -0.221292
     12          6           0       -1.009858    1.623629   -0.092339
     13          6           0       -1.692572    2.232874    0.978121
     14          6           0       -1.741647    3.625711    1.085732
     15          6           0       -1.132791    4.424953    0.115768
     16          6           0       -0.483786    3.832678   -0.969865
     17          6           0       -0.431801    2.440196   -1.081618
     18         17           0        3.000377   -2.327847    2.073057
     19          1           0        3.086575   -0.014363   -3.339112
     20          1           0        3.835933    0.062936   -1.699259
     21          1           0        2.733925    1.387386   -2.260812
     22          1           0        0.840198   -0.225470   -2.339663
     23          1           0        1.937361   -1.548434   -1.807960
     24          1           0        1.570995    1.008757   -0.134020
     25          1           0        2.360719   -0.487774    0.328172
     26          1           0        0.622609   -1.260604    2.413572
     27          1           0       -0.842670   -0.315219    2.266001
     28          1           0        0.751306    1.770562    1.877246
     29          1           0        2.082883    0.663567    2.334562
     30          1           0        1.291260    1.939167    4.276642
     31          1           0        0.942970    0.183076    4.504649
     32          1           0       -0.388025    1.324382    4.044351
     33          1           0       -0.087564   -2.223433   -0.994619
     34          1           0        1.005493   -2.593636    0.345553
     35          1           0       -2.082339   -2.417822    0.446262
     36          1           0       -1.062523   -2.681043    1.904138
     37          1           0       -1.136938   -4.470943   -0.593462
     38          1           0       -0.115550   -4.738050    0.879239
     39          1           0       -1.913886   -4.800740    1.000822
     40          1           0       -1.925906   -0.259218    0.231356
     41          1           0       -1.090050   -0.149493   -1.295866
     42          1           0       -2.179940    1.631062    1.734342
     43          1           0       -2.255624    4.085441    1.919922
     44          1           0       -1.172857    5.503248    0.199867
     45          1           0       -0.025583    4.453053   -1.729229
     46          1           0        0.058500    2.002348   -1.940125
 ---------------------------------------------------------------------
                    Distance matrix (angstroms):
                    1          2          3          4          5
     1  C    0.000000
     2  C    1.527055   0.000000
     3  C    2.535915   1.550713   0.000000
     4  N    3.912298   2.597889   1.508496   0.000000
     5  C    5.026392   3.912083   2.493600   1.511739   0.000000
     6  C    5.123836   4.406099   2.860182   2.610756   1.552066
     7  C    6.629001   5.920607   4.371233   3.921043   2.538202
     8  C    4.399035   2.927803   2.450873   1.508693   2.463144
     9  C    5.939778   4.447030   3.887067   2.601531   2.956260
    10  C    6.682256   5.228294   4.969298   3.918094   4.342232
    11  C    4.418054   3.141333   2.480933   1.510305   2.470128
    12  C    4.693090   3.800804   3.035948   2.571792   3.068211
    13  C    5.974166   5.116042   4.122189   3.452122   3.354129
    14  C    6.648687   6.045784   5.098723   4.695198   4.524553
    15  C    6.266408   5.948758   5.235512   5.197583   5.293063
    16  C    5.084283   4.885666   4.456673   4.678436   5.137528
    17  C    4.158955   3.669565   3.293082   3.429281   4.145482
    18  Cl   5.085692   4.410978   3.544065   3.694000   3.413793
    19  H    1.110474   2.168749   3.499121   4.748308   5.982611
    20  H    1.110921   2.178420   2.773951   4.238741   5.126048
    21  H    1.110930   2.178473   2.806606   4.163051   5.172703
    22  H    2.144259   1.106754   2.215325   2.828268   4.280155
    23  H    2.140659   1.110842   2.195502   2.959024   4.248381
    24  H    2.638158   2.164512   1.108451   2.165592   2.809898
    25  H    2.783884   2.140120   1.104620   2.156467   2.665796
    26  H    5.455899   4.345569   3.014125   2.169412   1.107360
    27  H    5.936293   4.737222   3.421178   2.164904   1.113143
    28  H    4.920631   4.339174   2.905756   2.840309   2.219033
    29  H    4.709394   4.218008   2.734992   2.975942   2.195369
    30  H    6.958389   6.468786   4.944101   4.759263   3.501017
    31  H    7.072458   6.300667   4.770365   4.247819   2.774982
    32  H    7.215888   6.388038   4.875978   4.165319   2.809684
    33  H    4.128131   2.625312   2.760495   2.164031   3.435846
    34  H    4.349153   3.049073   2.610689   2.157949   2.816198
    35  H    6.311161   4.791942   4.315483   2.930986   3.385500
    36  H    6.500173   5.076104   4.213667   2.876308   2.626473
    37  H    6.481644   5.049275   5.119186   4.224783   4.970102
    38  H    6.673371   5.327377   5.037736   4.189775   4.485407
    39  H    7.752774   6.277675   5.937983   4.754755   4.981789
    40  H    5.488271   4.139265   3.451048   2.164909   2.701499
    41  H    4.154034   2.860143   2.794190   2.174629   3.445987
    42  H    6.630092   5.612599   4.504305   3.525535   3.121836
    43  H    7.671828   7.050806   6.008232   5.500129   5.097352
    44  H    7.076718   6.901912   6.212322   6.249838   6.273601
    45  H    5.128084   5.217169   5.022374   5.475548   6.042020
    46  H    3.351446   2.982381   3.062518   3.490127   4.512715
                    6          7          8          9         10
     6  C    0.000000
     7  C    1.526534   0.000000
     8  C    3.839676   4.980027   0.000000
     9  C    4.505478   5.283130   1.553461   0.000000
    10  C    5.859576   6.601771   2.534250   1.527273   0.000000
    11  C    3.385241   4.557922   2.432187   3.085479   4.463976
    12  C    3.312632   4.377654   3.843827   4.512394   5.948058
    13  C    3.352553   3.944826   4.723977   5.068283   6.575254
    14  C    4.124861   4.507799   6.049419   6.461544   7.970945
    15  C    4.763561   5.371011   6.596527   7.255691   8.728305
    16  C    4.761026   5.719100   6.015032   6.891601   8.279383
    17  C    4.111416   5.289100   4.679791   5.607375   6.946727
    18  Cl   3.771302   4.510936   3.547890   4.322200   4.778757
    19  H    6.197366   7.710967   5.010853   6.516639   7.090041
    20  H    5.074590   6.509814   4.684297   6.232966   6.914459
    21  H    5.033363   6.504984   4.956066   6.452482   7.369786
    22  H    4.890150   6.383695   3.146506   4.502655   5.314205
    23  H    4.957420   6.414410   2.717832   4.198616   4.675760
    24  H    2.633751   4.136607   3.426758   4.746142   5.954543
    25  H    2.839943   4.251215   2.791690   4.191401   5.121616
    26  H    2.136350   2.780067   2.514607   2.817779   3.962197
    27  H    2.175474   2.643900   2.930354   2.893754   4.358790
    28  H    1.105436   2.143280   4.281118   5.046723   6.478091
    29  H    1.110586   2.143357   4.062522   4.948345   6.150705
    30  H    2.168191   1.110461   5.914896   6.344026   7.658382
    31  H    2.178003   1.110889   5.024477   5.175064   6.332232
    32  H    2.177150   1.110915   5.221444   5.292912   6.677037
    33  H    4.721998   5.963135   1.112985   2.143456   2.733802
    34  H    4.019858   5.128744   1.107656   2.168253   2.681129
    35  H    4.900810   5.648622   2.206375   1.108452   2.137255
    36  H    4.113072   4.609334   2.220216   1.108291   2.138446
    37  H    6.474085   7.377864   2.780046   2.179262   1.110921
    38  H    5.897833   6.610762   2.794762   2.178665   1.110938
    39  H    6.506947   7.059586   3.499277   2.169238   1.110569
    40  H    3.815579   4.705419   2.690220   2.729055   4.135736
    41  H    4.381583   5.634327   2.632579   3.379308   4.517773
    42  H    3.340573   3.638848   4.622562   4.652140   6.155191
    43  H    4.616344   4.649742   6.819586   7.068006   8.582843
    44  H    5.600650   6.060789   7.666410   8.323479   9.803067
    45  H    5.599908   6.604744   6.766031   7.755865   9.086589
    46  H    4.616125   5.951697   4.545331   5.649739   6.845633
                   11         12         13         14         15
    11  C    0.000000
    12  C    1.519450   0.000000
    13  C    2.539778   1.408248   0.000000
    14  C    3.827036   2.435508   1.397850   0.000000
    15  C    4.330806   2.811732   2.421202   1.396540   0.000000
    16  C    3.829817   2.434482   2.795565   2.418787   1.396637
    17  C    2.544220   1.406984   2.423850   2.796167   2.421648
    18  Cl   5.202491   6.032005   6.634970   7.675054   8.155634
    19  H    5.127319   5.477711   6.821204   7.492737   7.031840
    20  H    5.039731   5.338506   6.514704   7.180455   6.856364
    21  H    4.427135   4.332897   5.549722   6.019983   5.461359
    22  H    2.814306   3.448527   4.844179   5.764621   5.616784
    23  H    3.713516   4.657407   5.936072   6.977129   6.986266
    24  H    2.707991   2.653414   3.658714   4.394296   4.363857
    25  H    3.439882   3.999455   4.924787   5.858674   6.031966
    26  H    3.375729   4.154917   4.430008   5.588286   6.378628
    27  H    2.527207   3.057589   2.978883   4.210953   5.213147
    28  H    3.188398   2.646234   2.644749   3.206694   3.701137
    29  H    4.028934   4.046803   4.307751   4.996089   5.423249
    30  H    5.361454   4.948000   4.457551   4.714325   5.419228
    31  H    5.103460   5.198176   4.856352   5.545079   6.447060
    32  H    4.474753   4.193856   3.453834   3.985202   5.059840
    33  H    2.615826   4.057662   5.130928   6.424666   6.821033
    34  H    3.403024   4.694541   5.565509   6.839219   7.340685
    35  H    2.836527   4.215879   4.697208   6.086812   6.916244
    36  H    3.509046   4.745408   5.039945   6.395791   7.327918
    37  H    4.598566   6.116460   6.907949   8.291030   8.924124
    38  H    5.046253   6.497285   7.147766   8.522871   9.250854
    39  H    5.145539   6.579117   7.037132   8.428639   9.300905
    40  H    1.110021   2.118734   2.612016   3.982033   4.752247
    41  H    1.110712   2.144498   3.348092   4.510959   4.787493
    42  H    2.751997   2.169311   1.082393   2.142760   3.394426
    43  H    4.691668   3.414915   2.153142   1.082311   2.151974
    44  H    5.413115   3.894021   3.401636   2.152539   1.082311
    45  H    4.695891   3.413773   3.877859   3.399026   2.151909
    46  H    2.760123   2.167748   3.411093   3.877067   3.393359
                   16         17         18         19         20
    16  C    0.000000
    17  C    1.397926   0.000000
    18  Cl   7.703949   6.668287   0.000000
    19  H    5.758518   4.847691   5.886528   0.000000
    20  H    5.779528   4.924063   4.543607   1.804614   0.000000
    21  H    4.242601   3.538464   5.714576   1.803328   1.812162
    22  H    4.483062   3.210364   5.344012   2.467727   3.076967
    23  H    5.959926   4.695708   4.098754   2.453262   2.492570
    24  H    3.591001   2.637831   4.248205   3.690037   2.911099
    25  H    5.333143   4.284704   2.615273   3.768283   2.567102
    26  H    6.213958   5.198467   2.628448   6.381036   5.384477
    27  H    5.273014   4.355190   4.342454   6.851771   6.144560
    28  H    3.726099   3.256229   4.679062   5.987473   5.022181
    29  H    5.248837   4.598949   3.139863   5.801514   4.439105
    30  H    5.853376   5.650745   5.097477   8.064685   6.760695
    31  H    6.732424   6.179884   4.055897   8.133794   6.846323
    32  H    5.607413   5.246191   5.357802   8.269257   7.240312
    33  H    6.069109   4.677126   4.353954   4.522366   4.595414
    34  H    6.726499   5.426057   2.652259   4.955836   4.387485
    35  H    6.605266   5.353413   5.337468   6.842758   6.766341
    36  H    7.143066   5.961513   4.081720   7.198463   6.671489
    37  H    8.337770   6.964148   5.368478   6.725902   6.819699
    38  H    8.775657   7.447966   4.116222   7.096570   6.731444
    39  H    8.970212   7.678821   5.604897   8.170009   8.000388
    40  H    4.501806   3.353071   5.651491   6.158990   6.085215
    41  H    4.041227   2.680612   5.729438   4.651592   4.947036
    42  H    3.877730   3.411791   6.528658   7.495568   7.102068
    43  H    3.399142   3.878454   8.293326   8.544292   8.147766
    44  H    2.152649   3.402008   9.069221   7.817363   7.634897
    45  H    1.082335   2.153139   8.342327   5.677592   5.846822
    46  H    2.141398   1.081268   6.596276   3.897887   4.253038
                   21         22         23         24         25
    21  H    0.000000
    22  H    2.488719   0.000000
    23  H    3.075488   1.799085   0.000000
    24  H    2.453367   2.631015   3.078234   0.000000
    25  H    3.218438   3.081904   2.422249   1.754107   0.000000
    26  H    5.772293   4.869506   4.430886   3.541138   2.822620
    27  H    6.015225   4.904308   5.083950   3.652231   3.747887
    28  H    4.604468   4.666301   5.099334   2.301614   3.176464
    29  H    4.697364   4.917625   4.698363   2.544618   2.329888
    30  H    6.717444   6.976002   7.042953   4.516398   4.756490
    31  H    7.101362   6.857265   6.620874   4.753253   4.461279
    32  H    7.036023   6.683278   6.921708   4.625599   4.964825
    33  H    4.754162   2.581035   2.284178   3.733430   3.279692
    34  H    5.062524   3.584120   2.568744   3.677909   2.504315
    35  H    6.708521   4.594454   4.689919   5.042323   4.845595
    36  H    6.950679   5.259281   4.905281   4.970325   4.360354
    37  H    7.216901   4.998232   4.412185   6.129527   5.380395
    38  H    7.449859   5.624781   4.648562   6.074283   4.949791
    39  H    8.398411   6.298961   5.770516   6.868953   6.109532
    40  H    5.535001   3.776587   4.554747   3.737590   4.293805
    41  H    4.232718   2.195710   3.374092   3.126114   3.828804
    42  H    6.337721   5.400506   6.293589   4.236455   5.204264
    43  H    7.046534   6.805302   7.951024   5.322375   6.690186
    44  H    6.185322   6.581779   7.964361   5.276424   6.956649
    45  H    4.158819   4.796956   6.314839   4.117879   5.859958
    46  H    2.763859   2.394547   4.019408   2.556732   4.079962
                   26         27         28         29         30
    26  H    0.000000
    27  H    1.750021   0.000000
    28  H    3.080937   2.653747   0.000000
    29  H    2.416832   3.085706   1.790998   0.000000
    30  H    3.762534   3.698458   2.465173   2.454689   0.000000
    31  H    2.561142   2.906605   3.075726   2.497909   1.804757
    32  H    3.219157   2.461203   2.488674   3.076596   1.803307
    33  H    3.612084   3.852676   4.990321   4.912133   6.856718
    34  H    2.490036   3.506424   4.632161   3.965640   6.006782
    35  H    3.539238   3.044531   5.255456   5.514500   6.710912
    36  H    2.262043   2.403415   4.807025   4.611427   5.702229
    37  H    4.737566   5.053035   6.973252   6.730807   8.408541
    38  H    3.871910   4.691828   6.641497   6.010702   7.622774
    39  H    4.578453   4.782058   7.145165   6.900121   8.150479
    40  H    3.501395   2.305714   3.741180   4.620108   5.616707
    41  H    4.234111   3.574291   4.140754   4.889640   6.409835
    42  H    4.083793   2.420529   2.938041   4.412252   4.313635
    43  H    6.091643   4.634870   3.795012   5.541100   4.768753
    44  H    7.339883   6.183243   4.522051   6.211222   5.949339
    45  H    7.087230   6.274226   4.561357   5.943083   6.642604
    46  H    5.469895   4.886176   3.886647   4.915629   6.338129
                   31         32         33         34         35
    31  H    0.000000
    32  H    1.812733   0.000000
    33  H    6.090586   6.169967   0.000000
    34  H    5.001212   5.565417   1.768583   0.000000
    35  H    5.691017   5.460864   2.468411   3.094472   0.000000
    36  H    4.357504   4.591175   3.092369   2.591046   1.798531
    37  H    7.209483   7.460293   2.512651   2.999340   2.487994
    38  H    6.203349   6.844360   3.136148   2.477916   3.072326
    39  H    6.728808   7.007741   3.736275   3.717991   2.452389
    40  H    5.165956   4.405882   2.956460   3.749086   2.174909
    41  H    6.155465   5.584180   2.323135   3.613778   3.027369
    42  H    4.418578   2.939584   5.165501   5.470264   4.249957
    43  H    5.669239   3.952793   7.279899   7.597604   6.670392
    44  H    7.163247   5.732272   7.893431   8.386058   7.976918
    45  H    7.617876   6.576790   6.717065   7.417794   7.494793
    46  H    6.754787   6.039286   4.332729   5.219597   5.460397
                   36         37         38         39         40
    36  H    0.000000
    37  H    3.073644   0.000000
    38  H    2.485650   1.812023   0.000000
    39  H    2.456403   1.803928   1.803531   0.000000
    40  H    3.067388   4.363648   4.874123   4.606261   0.000000
    41  H    4.080383   4.378413   5.170647   5.252388   1.744449
    42  H    4.457769   6.613697   6.749703   6.478959   2.428304
    43  H    6.870884   8.987784   9.138760   8.940120   4.672904
    44  H    8.360582  10.005756  10.318121  10.361603   5.811548
    45  H    8.072913   9.064369   9.554505   9.831152   5.446156
    46  H    6.161915   6.719082   7.308356   7.669516   3.710509
                   41         42         43         44         45
    41  H    0.000000
    42  H    3.679728   0.000000
    43  H    5.443760   2.462548   0.000000
    44  H    5.847868   4.285167   2.478134   0.000000
    45  H    4.743872   4.959961   4.292380   2.478015   0.000000
    46  H    2.522827   4.318585   4.959275   4.283936   2.461199
                   46
    46  H    0.000000
 Stoichiometry    C16H28ClN
 Framework group  C1[X(C16H28ClN)]
 Deg. of freedom   132
 Full point group                 C1      NOp   1
 Largest Abelian subgroup         C1      NOp   1
 Largest concise Abelian subgroup C1      NOp   1
                         Standard orientation:                         
 ---------------------------------------------------------------------
 Center     Atomic      Atomic             Coordinates (Angstroms)
 Number     Number       Type             X           Y           Z
 ---------------------------------------------------------------------
      1          6           0       -0.251964    3.582163   -1.364408
      2          6           0       -0.654769    2.626844   -0.243245
      3          6           0       -0.450770    1.150666   -0.672191
      4          7           0       -0.591087    0.114589    0.415199
      5          6           0       -0.611430   -1.284072   -0.158113
      6          6           0        0.200001   -1.520809   -1.459821
      7          6           0        0.307581   -3.010338   -1.776104
      8          6           0       -1.879548    0.366906    1.158408
      9          6           0       -2.293620   -0.705692    2.203070
     10          6           0       -3.663191   -0.381118    2.795937
     11          6           0        0.535823    0.237939    1.413137
     12          6           0        1.941838    0.079641    0.859251
     13          6           0        2.576169   -1.177479    0.880170
     14          6           0        3.879072   -1.321428    0.394675
     15          6           0        4.571311   -0.210992   -0.093241
     16          6           0        3.965932    1.047600   -0.085629
     17          6           0        2.663025    1.196461    0.398592
     18         17           0       -3.362526   -0.395007   -1.973331
     19          1           0       -0.439235    4.629653   -1.046844
     20          1           0       -0.847191    3.376422   -2.279570
     21          1           0        0.828723    3.471256   -1.596746
     22          1           0       -0.057479    2.881871    0.652920
     23          1           0       -1.726099    2.813013   -0.016166
     24          1           0        0.540329    1.073893   -1.162591
     25          1           0       -1.181349    0.960480   -1.478583
     26          1           0       -1.646890   -1.601442   -0.389082
     27          1           0       -0.268561   -2.017665    0.605674
     28          1           0        1.224679   -1.111595   -1.392236
     29          1           0       -0.306735   -1.029499   -2.317279
     30          1           0        0.859180   -3.149883   -2.729723
     31          1           0       -0.704123   -3.456838   -1.881778
     32          1           0        0.859628   -3.536583   -0.968365
     33          1           0       -1.822583    1.328027    1.716743
     34          1           0       -2.716360    0.487684    0.442823
     35          1           0       -1.570560   -0.738789    3.042567
     36          1           0       -2.357773   -1.717434    1.755220
     37          1           0       -3.644559    0.612630    3.292187
     38          1           0       -4.438070   -0.379163    1.999858
     39          1           0       -3.934320   -1.148946    3.551114
     40          1           0        0.429195   -0.521679    2.215482
     41          1           0        0.484366    1.203130    1.960349
     42          1           0        2.060492   -2.048251    1.264110
     43          1           0        4.353502   -2.294196    0.400536
     44          1           0        5.580535   -0.323927   -0.467553
     45          1           0        4.508835    1.910283   -0.449610
     46          1           0        2.220235    2.182790    0.413843
 ---------------------------------------------------------------------
 Rotational constants (GHZ):           0.4366381           0.2289126           0.2191426
 Leave Link  202 at Sat Aug 21 09:34:12 2021, MaxMem=   104857600 cpu:               0.5 elap:               0.0
 (Enter /sw/arch/RedHatEnterpriseServer7/EB_production/2020/software/Gaussian/g16.c01/l301.exe)
 Standard basis: TZVP (5D, 7F)
 Ernie: Thresh=  0.10000D-02 Tol=  0.10000D-05 Strict=F.
 There are   531 symmetry adapted cartesian basis functions of A   symmetry.
 There are   513 symmetry adapted basis functions of A   symmetry.
   513 basis functions,   866 primitive gaussians,   531 cartesian basis functions
    74 alpha electrons       74 beta electrons
       nuclear repulsion energy      1549.8390928619 Hartrees.
 IExCor=  404 DFT=T Ex=B Corr=P86 ExCW=0 ScaHFX=  0.000000
 ScaDFX=  1.000000  1.000000  1.000000  1.000000 ScalE2=  1.000000  1.000000
 IRadAn=      5 IRanWt=     -1 IRanGd=            0 ICorTp=0 IEmpDi=131
 NAtoms=   46 NActive=   46 NUniq=   46 SFac= 1.00D+00 NAtFMM=   60 NAOKFM=F Big=F
 Integral buffers will be    131072 words long.
 Raffenetti 2 integral format.
 Two-electron integral symmetry is turned on.
 R6Disp:  Grimme-D3 Dispersion energy=       -0.0662524325 Hartrees.
 Nuclear repulsion after empirical dispersion term =     1549.7728404294 Hartrees.
 ------------------------------------------------------------------------------
 Polarizable Continuum Model (PCM)
 =================================
 Model                : PCM.
 Atomic radii         : UFF (Universal Force Field).
 Polarization charges : Total charges.
 Charge compensation  : None.
 Solution method      : On-the-fly selection.
 Cavity type          : Scaled VdW (van der Waals Surface) (Alpha=1.100).
 Cavity algorithm     : GePol (No added spheres)
                        Default sphere list used, NSphG=   46.
                        Lebedev-Laikov grids with approx.  5.0 points / Ang**2.
                        Smoothing algorithm: York/Karplus (Gamma=1.0000).
                        Polarization charges: spherical gaussians, with
                                              point-specific exponents (IZeta= 3).
                        Self-potential: point-specific (ISelfS= 7).
                        Self-field    : sphere-specific E.n sum rule (ISelfD= 2).
 1st derivatives      : Analytical E(r).r(x)/FMM algorithm (CHGder, D1EAlg=3).
                        Cavity 1st derivative terms included.
 Solvent              : Water, Eps=  78.355300 Eps(inf)=   1.777849
 ------------------------------------------------------------------------------
 GePol: Number of generator spheres                  =      46
 GePol: Total number of spheres                      =      46
 GePol: Number of exposed spheres                    =      45 ( 97.83%)
 GePol: Number of points                             =    2850
 GePol: Average weight of points                     =       0.13
 GePol: Minimum weight of points                     =   0.36D-10
 GePol: Maximum weight of points                     =    0.21616
 GePol: Number of points with low weight             =     207
 GePol: Fraction of low-weight points (<1% of avg)   =       7.26%
 GePol: Cavity surface area                          =    382.620 Ang**2
 GePol: Cavity volume                                =    435.112 Ang**3
 Leave Link  301 at Sat Aug 21 09:34:13 2021, MaxMem=   104857600 cpu:               2.2 elap:               0.1
 (Enter /sw/arch/RedHatEnterpriseServer7/EB_production/2020/software/Gaussian/g16.c01/l302.exe)
 NPDir=0 NMtPBC=     1 NCelOv=     1 NCel=       1 NClECP=     1 NCelD=      1
         NCelK=      1 NCelE2=     1 NClLst=     1 CellRange=     0.0.
 One-electron integrals computed using PRISM.
 One-electron integral symmetry used in STVInt
 NBasis=   513 RedAO= T EigKep=  8.17D-06  NBF=   513
 NBsUse=   513 1.00D-06 EigRej= -1.00D+00 NBFU=   513
 Precomputing XC quadrature grid using
 IXCGrd= 4 IRadAn=           5 IRanWt=          -1 IRanGd=           0 AccXCQ= 0.00D+00.
 Generated NRdTot=       0 NPtTot=           0 NUsed=           0 NTot=          32
 NSgBfM=   520   516   518   519   520 MxSgAt=    46 MxSgA2=    46.
 Leave Link  302 at Sat Aug 21 09:34:13 2021, MaxMem=   104857600 cpu:              13.6 elap:               0.6
 (Enter /sw/arch/RedHatEnterpriseServer7/EB_production/2020/software/Gaussian/g16.c01/l303.exe)
 DipDrv:  MaxL=1.
 Leave Link  303 at Sat Aug 21 09:34:14 2021, MaxMem=   104857600 cpu:               3.7 elap:               0.3
 (Enter /sw/arch/RedHatEnterpriseServer7/EB_production/2020/software/Gaussian/g16.c01/l401.exe)
 ExpMin= 9.52D-02 ExpMax= 6.95D+04 ExpMxC= 2.37D+03 IAcc=3 IRadAn=         5 AccDes= 0.00D+00
 Harris functional with IExCor=  404 and IRadAn=       5 diagonalized for initial guess.
 HarFok:  IExCor=  404 AccDes= 0.00D+00 IRadAn=         5 IDoV= 1 UseB2=F ITyADJ=14
 ICtDFT=  3500011 ScaDFX=  1.000000  1.000000  1.000000  1.000000
 FoFCou: FMM=F IPFlag=           0 FMFlag=      100000 FMFlg1=           0
         NFxFlg=           0 DoJE=T BraDBF=F KetDBF=T FulRan=T
         wScrn=  0.000000 ICntrl=       500 IOpCl=  0 I1Cent=   200000004 NGrid=           0
         NMat0=    1 NMatS0=      1 NMatT0=    0 NMatD0=    1 NMtDS0=    0 NMtDT0=    0
 Petite list used in FoFCou.
 Harris En= -1142.14626738513    
 JPrj=0 DoOrth=F DoCkMO=F.
 Leave Link  401 at Sat Aug 21 09:34:16 2021, MaxMem=   104857600 cpu:              40.0 elap:               1.7
 (Enter /sw/arch/RedHatEnterpriseServer7/EB_production/2020/software/Gaussian/g16.c01/l502.exe)
 Integral symmetry usage will be decided dynamically.
 Closed shell SCF:
 Using DIIS extrapolation, IDIIS=  1040.
 NGot=   104857600 LenX=   104274310 LenY=   103991818
 Requested convergence on RMS density matrix=1.00D-08 within 128 cycles.
 Requested convergence on MAX density matrix=1.00D-06.
 Requested convergence on             energy=1.00D-06.
 No special actions if energy rises.
 Fock matrices will be formed incrementally for  20 cycles.

 Cycle   1  Pass 1  IDiag  1:
 FoFJK:  IHMeth= 1 ICntrl=     500 DoSepK=F KAlg= 0 I1Cent=           0 FoldK=F
 IRaf= 840000000 NMat=       1 IRICut=       1 DoRegI=T DoRafI=F ISym2E= 0 IDoP0=0 IntGTp=1.
 FoFCou: FMM=F IPFlag=           0 FMFlag=      100000 FMFlg1=           0
         NFxFlg=           0 DoJE=T BraDBF=F KetDBF=F FulRan=T
         wScrn=  0.000000 ICntrl=       500 IOpCl=  0 I1Cent=           0 NGrid=           0
         NMat0=    1 NMatS0=      1 NMatT0=    0 NMatD0=    1 NMtDS0=    0 NMtDT0=    0
 Symmetry not used in FoFCou.
 Inv3:  Mode=1 IEnd=    24367500.
 Iteration    1 A*A^-1 deviation from unit magnitude is 3.33D-15 for    342.
 Iteration    1 A*A^-1 deviation from orthogonality  is 2.00D-15 for   2275    750.
 Iteration    1 A^-1*A deviation from unit magnitude is 3.33D-15 for   2508.
 Iteration    1 A^-1*A deviation from orthogonality  is 3.13D-15 for   2088   2081.
 E= -1141.34789381654    
 DIIS: error= 2.21D-02 at cycle   1 NSaved=   1.
 NSaved= 1 IEnMin= 1 EnMin= -1141.34789381654     IErMin= 1 ErrMin= 2.21D-02
 ErrMax= 2.21D-02  0.00D+00 EMaxC= 1.00D-01 BMatC= 4.84D-01 BMatP= 4.84D-01
 IDIUse=3 WtCom= 7.79D-01 WtEn= 2.21D-01
 Coeff-Com:  0.100D+01
 Coeff-En:   0.100D+01
 Coeff:      0.100D+01
 Gap=     0.165 Goal=   None    Shift=    0.000
 GapD=    0.165 DampG=1.000 DampE=0.500 DampFc=0.5000 IDamp=-1.
 Damping current iteration by 5.00D-01
 RMSDP=3.75D-03 MaxDP=1.82D-01              OVMax= 2.06D-01

 Cycle   2  Pass 1  IDiag  1:
 RMSU=  1.86D-03    CP:  9.79D-01
 E= -1141.48063384536     Delta-E=       -0.132740028818 Rises=F Damp=T
 DIIS: error= 1.39D-02 at cycle   2 NSaved=   2.
 NSaved= 2 IEnMin= 2 EnMin= -1141.48063384536     IErMin= 2 ErrMin= 1.39D-02
 ErrMax= 1.39D-02  0.00D+00 EMaxC= 1.00D-01 BMatC= 7.13D-02 BMatP= 4.84D-01
 IDIUse=3 WtCom= 8.61D-01 WtEn= 1.39D-01
 Coeff-Com:  0.224D+00 0.776D+00
 Coeff-En:   0.356D+00 0.644D+00
 Coeff:      0.243D+00 0.757D+00
 Gap=     0.148 Goal=   None    Shift=    0.000
 RMSDP=1.08D-03 MaxDP=7.01D-02 DE=-1.33D-01 OVMax= 1.76D-01

 Cycle   3  Pass 1  IDiag  1:
 RMSU=  9.54D-04    CP:  9.73D-01  7.28D-01
 E= -1141.80828984850     Delta-E=       -0.327656003144 Rises=F Damp=F
 DIIS: error= 1.04D-02 at cycle   3 NSaved=   3.
 NSaved= 3 IEnMin= 3 EnMin= -1141.80828984850     IErMin= 3 ErrMin= 1.04D-02
 ErrMax= 1.04D-02  0.00D+00 EMaxC= 1.00D-01 BMatC= 3.27D-02 BMatP= 7.13D-02
 IDIUse=3 WtCom= 8.96D-01 WtEn= 1.04D-01
 Coeff-Com:  0.838D-01 0.403D+00 0.513D+00
 Coeff-En:   0.000D+00 0.000D+00 0.100D+01
 Coeff:      0.751D-01 0.361D+00 0.564D+00
 Gap=     0.130 Goal=   None    Shift=    0.000
 RMSDP=7.03D-04 MaxDP=4.27D-02 DE=-3.28D-01 OVMax= 6.43D-02

 Cycle   4  Pass 1  IDiag  1:
 RMSU=  5.01D-04    CP:  9.85D-01  7.96D-01  5.15D-01
 E= -1141.82362998898     Delta-E=       -0.015340140475 Rises=F Damp=F
 DIIS: error= 6.11D-03 at cycle   4 NSaved=   4.
 NSaved= 4 IEnMin= 4 EnMin= -1141.82362998898     IErMin= 4 ErrMin= 6.11D-03
 ErrMax= 6.11D-03  0.00D+00 EMaxC= 1.00D-01 BMatC= 1.49D-02 BMatP= 3.27D-02
 IDIUse=3 WtCom= 9.39D-01 WtEn= 6.11D-02
 Coeff-Com:  0.174D-01 0.993D-01 0.396D+00 0.487D+00
 Coeff-En:   0.000D+00 0.000D+00 0.362D+00 0.638D+00
 Coeff:      0.164D-01 0.932D-01 0.394D+00 0.496D+00
 Gap=     0.134 Goal=   None    Shift=    0.000
 RMSDP=4.39D-04 MaxDP=4.57D-02 DE=-1.53D-02 OVMax= 4.30D-02

 Cycle   5  Pass 1  IDiag  1:
 RMSU=  2.25D-04    CP:  9.76D-01  7.47D-01  6.80D-01  3.66D-01
 E= -1141.83733189112     Delta-E=       -0.013701902146 Rises=F Damp=F
 DIIS: error= 1.13D-03 at cycle   5 NSaved=   5.
 NSaved= 5 IEnMin= 5 EnMin= -1141.83733189112     IErMin= 5 ErrMin= 1.13D-03
 ErrMax= 1.13D-03  0.00D+00 EMaxC= 1.00D-01 BMatC= 5.96D-04 BMatP= 1.49D-02
 IDIUse=3 WtCom= 9.89D-01 WtEn= 1.13D-02
 Coeff-Com:  0.645D-02 0.373D-01 0.200D+00 0.290D+00 0.467D+00
 Coeff-En:   0.000D+00 0.000D+00 0.000D+00 0.000D+00 0.100D+01
 Coeff:      0.638D-02 0.369D-01 0.198D+00 0.286D+00 0.473D+00
 Gap=     0.132 Goal=   None    Shift=    0.000
 RMSDP=1.10D-04 MaxDP=1.16D-02 DE=-1.37D-02 OVMax= 1.58D-02

 Cycle   6  Pass 1  IDiag  1:
 RMSU=  5.91D-05    CP:  9.78D-01  7.60D-01  6.72D-01  4.61D-01  6.72D-01
 E= -1141.83784568770     Delta-E=       -0.000513796582 Rises=F Damp=F
 DIIS: error= 5.98D-04 at cycle   6 NSaved=   6.
 NSaved= 6 IEnMin= 6 EnMin= -1141.83784568770     IErMin= 6 ErrMin= 5.98D-04
 ErrMax= 5.98D-04  0.00D+00 EMaxC= 1.00D-01 BMatC= 1.38D-04 BMatP= 5.96D-04
 IDIUse=3 WtCom= 9.94D-01 WtEn= 5.98D-03
 Coeff-Com:  0.171D-02 0.978D-02 0.745D-01 0.123D+00 0.338D+00 0.453D+00
 Coeff-En:   0.000D+00 0.000D+00 0.000D+00 0.000D+00 0.217D+00 0.783D+00
 Coeff:      0.170D-02 0.972D-02 0.741D-01 0.122D+00 0.337D+00 0.455D+00
 Gap=     0.133 Goal=   None    Shift=    0.000
 RMSDP=3.24D-05 MaxDP=1.47D-03 DE=-5.14D-04 OVMax= 5.69D-03

 Cycle   7  Pass 1  IDiag  1:
 RMSU=  1.69D-05    CP:  9.78D-01  7.59D-01  6.79D-01  4.58D-01  6.65D-01
                    CP:  5.46D-01
 E= -1141.83798950413     Delta-E=       -0.000143816422 Rises=F Damp=F
 DIIS: error= 9.20D-05 at cycle   7 NSaved=   7.
 NSaved= 7 IEnMin= 7 EnMin= -1141.83798950413     IErMin= 7 ErrMin= 9.20D-05
 ErrMax= 9.20D-05  0.00D+00 EMaxC= 1.00D-01 BMatC= 5.52D-06 BMatP= 1.38D-04
 IDIUse=1 WtCom= 1.00D+00 WtEn= 0.00D+00
 Coeff-Com:  0.425D-03 0.251D-02 0.276D-01 0.486D-01 0.155D+00 0.256D+00
 Coeff-Com:  0.510D+00
 Coeff:      0.425D-03 0.251D-02 0.276D-01 0.486D-01 0.155D+00 0.256D+00
 Coeff:      0.510D+00
 Gap=     0.133 Goal=   None    Shift=    0.000
 RMSDP=8.11D-06 MaxDP=4.54D-04 DE=-1.44D-04 OVMax= 8.13D-04

 Cycle   8  Pass 1  IDiag  1:
 RMSU=  5.56D-06    CP:  9.78D-01  7.58D-01  6.77D-01  4.61D-01  6.69D-01
                    CP:  5.55D-01  6.94D-01
 E= -1141.83799495445     Delta-E=       -0.000005450328 Rises=F Damp=F
 DIIS: error= 1.98D-05 at cycle   8 NSaved=   8.
 NSaved= 8 IEnMin= 8 EnMin= -1141.83799495445     IErMin= 8 ErrMin= 1.98D-05
 ErrMax= 1.98D-05  0.00D+00 EMaxC= 1.00D-01 BMatC= 3.24D-07 BMatP= 5.52D-06
 IDIUse=1 WtCom= 1.00D+00 WtEn= 0.00D+00
 Coeff-Com:  0.773D-04 0.237D-03 0.516D-02 0.974D-02 0.369D-01 0.736D-01
 Coeff-Com:  0.250D+00 0.624D+00
 Coeff:      0.773D-04 0.237D-03 0.516D-02 0.974D-02 0.369D-01 0.736D-01
 Coeff:      0.250D+00 0.624D+00
 Gap=     0.133 Goal=   None    Shift=    0.000
 RMSDP=2.70D-06 MaxDP=2.53D-04 DE=-5.45D-06 OVMax= 1.70D-04

 Cycle   9  Pass 1  IDiag  1:
 RMSU=  1.27D-06    CP:  9.78D-01  7.58D-01  6.77D-01  4.60D-01  6.76D-01
                    CP:  5.59D-01  6.97D-01  7.67D-01
 E= -1141.83799522986     Delta-E=       -0.000000275403 Rises=F Damp=F
 DIIS: error= 6.20D-06 at cycle   9 NSaved=   9.
 NSaved= 9 IEnMin= 9 EnMin= -1141.83799522986     IErMin= 9 ErrMin= 6.20D-06
 ErrMax= 6.20D-06  0.00D+00 EMaxC= 1.00D-01 BMatC= 2.67D-08 BMatP= 3.24D-07
 IDIUse=1 WtCom= 1.00D+00 WtEn= 0.00D+00
 Coeff-Com:  0.226D-04-0.271D-04 0.102D-02 0.209D-02 0.966D-02 0.225D-01
 Coeff-Com:  0.986D-01 0.326D+00 0.540D+00
 Coeff:      0.226D-04-0.271D-04 0.102D-02 0.209D-02 0.966D-02 0.225D-01
 Coeff:      0.986D-01 0.326D+00 0.540D+00
 Gap=     0.133 Goal=   None    Shift=    0.000
 RMSDP=6.69D-07 MaxDP=3.68D-05 DE=-2.75D-07 OVMax= 9.27D-05

 Cycle  10  Pass 1  IDiag  1:
 RMSU=  3.69D-07    CP:  9.78D-01  7.58D-01  6.77D-01  4.60D-01  6.75D-01
                    CP:  5.62D-01  7.10D-01  7.57D-01  7.24D-01
 E= -1141.83799525465     Delta-E=       -0.000000024794 Rises=F Damp=F
 DIIS: error= 3.18D-06 at cycle  10 NSaved=  10.
 NSaved=10 IEnMin=10 EnMin= -1141.83799525465     IErMin=10 ErrMin= 3.18D-06
 ErrMax= 3.18D-06  0.00D+00 EMaxC= 1.00D-01 BMatC= 5.18D-09 BMatP= 2.67D-08
 IDIUse=1 WtCom= 1.00D+00 WtEn= 0.00D+00
 Coeff-Com:  0.732D-05-0.364D-04 0.175D-03 0.406D-03 0.249D-02 0.667D-02
 Coeff-Com:  0.349D-01 0.139D+00 0.344D+00 0.472D+00
 Coeff:      0.732D-05-0.364D-04 0.175D-03 0.406D-03 0.249D-02 0.667D-02
 Coeff:      0.349D-01 0.139D+00 0.344D+00 0.472D+00
 Gap=     0.133 Goal=   None    Shift=    0.000
 RMSDP=2.43D-07 MaxDP=2.53D-05 DE=-2.48D-08 OVMax= 4.02D-05

 Cycle  11  Pass 1  IDiag  1:
 RMSU=  1.49D-07    CP:  9.78D-01  7.58D-01  6.77D-01  4.60D-01  6.75D-01
                    CP:  5.62D-01  7.12D-01  7.68D-01  7.04D-01  6.27D-01
 E= -1141.83799525970     Delta-E=       -0.000000005048 Rises=F Damp=F
 DIIS: error= 8.15D-07 at cycle  11 NSaved=  11.
 NSaved=11 IEnMin=11 EnMin= -1141.83799525970     IErMin=11 ErrMin= 8.15D-07
 ErrMax= 8.15D-07  0.00D+00 EMaxC= 1.00D-01 BMatC= 2.72D-10 BMatP= 5.18D-09
 IDIUse=1 WtCom= 1.00D+00 WtEn= 0.00D+00
 Coeff-Com:  0.263D-05-0.144D-04 0.249D-04 0.671D-04 0.574D-03 0.166D-02
 Coeff-Com:  0.960D-02 0.460D-01 0.137D+00 0.251D+00 0.555D+00
 Coeff:      0.263D-05-0.144D-04 0.249D-04 0.671D-04 0.574D-03 0.166D-02
 Coeff:      0.960D-02 0.460D-01 0.137D+00 0.251D+00 0.555D+00
 Gap=     0.133 Goal=   None    Shift=    0.000
 RMSDP=8.21D-08 MaxDP=3.17D-06 DE=-5.05D-09 OVMax= 1.04D-05

 Cycle  12  Pass 1  IDiag  1:
 RMSU=  4.99D-08    CP:  9.78D-01  7.58D-01  6.77D-01  4.60D-01  6.75D-01
                    CP:  5.62D-01  7.12D-01  7.73D-01  7.20D-01  6.57D-01
                    CP:  7.31D-01
 E= -1141.83799525994     Delta-E=       -0.000000000237 Rises=F Damp=F
 DIIS: error= 4.13D-07 at cycle  12 NSaved=  12.
 NSaved=12 IEnMin=12 EnMin= -1141.83799525994     IErMin=12 ErrMin= 4.13D-07
 ErrMax= 4.13D-07  0.00D+00 EMaxC= 1.00D-01 BMatC= 6.68D-11 BMatP= 2.72D-10
 IDIUse=1 WtCom= 1.00D+00 WtEn= 0.00D+00
 Coeff-Com:  0.104D-05-0.602D-05-0.886D-05-0.106D-04 0.843D-04 0.332D-03
 Coeff-Com:  0.249D-02 0.159D-01 0.547D-01 0.115D+00 0.369D+00 0.442D+00
 Coeff:      0.104D-05-0.602D-05-0.886D-05-0.106D-04 0.843D-04 0.332D-03
 Coeff:      0.249D-02 0.159D-01 0.547D-01 0.115D+00 0.369D+00 0.442D+00
 Gap=     0.133 Goal=   None    Shift=    0.000
 RMSDP=2.98D-08 MaxDP=2.29D-06 DE=-2.37D-10 OVMax= 4.85D-06

 Cycle  13  Pass 1  IDiag  1:
 RMSU=  1.49D-08    CP:  9.78D-01  7.58D-01  6.77D-01  4.60D-01  6.75D-01
                    CP:  5.62D-01  7.12D-01  7.73D-01  7.27D-01  6.45D-01
                    CP:  7.54D-01  6.19D-01
 E= -1141.83799526002     Delta-E=       -0.000000000086 Rises=F Damp=F
 DIIS: error= 7.46D-08 at cycle  13 NSaved=  13.
 NSaved=13 IEnMin=13 EnMin= -1141.83799526002     IErMin=13 ErrMin= 7.46D-08
 ErrMax= 7.46D-08  0.00D+00 EMaxC= 1.00D-01 BMatC= 3.68D-12 BMatP= 6.68D-11
 IDIUse=1 WtCom= 1.00D+00 WtEn= 0.00D+00
 Coeff-Com:  0.373D-06-0.242D-05-0.776D-05-0.125D-04 0.314D-05 0.614D-04
 Coeff-Com:  0.704D-03 0.577D-02 0.209D-01 0.455D-01 0.167D+00 0.258D+00
 Coeff-Com:  0.502D+00
 Coeff:      0.373D-06-0.242D-05-0.776D-05-0.125D-04 0.314D-05 0.614D-04
 Coeff:      0.704D-03 0.577D-02 0.209D-01 0.455D-01 0.167D+00 0.258D+00
 Coeff:      0.502D+00
 Gap=     0.133 Goal=   None    Shift=    0.000
 RMSDP=7.36D-09 MaxDP=2.86D-07 DE=-8.64D-11 OVMax= 1.18D-06

 Error on total polarization charges =  0.02101
 SCF Done:  E(RB-P86) =  -1141.83799526     A.U. after   13 cycles
            NFock= 13  Conv=0.74D-08     -V/T= 2.0046
 KE= 1.136609086030D+03 PE=-5.770822049056D+03 EE= 1.942602127337D+03
 Leave Link  502 at Sat Aug 21 09:35:53 2021, MaxMem=   104857600 cpu:            2306.9 elap:              97.2
 (Enter /sw/arch/RedHatEnterpriseServer7/EB_production/2020/software/Gaussian/g16.c01/l601.exe)
 Copying SCF densities to generalized density rwf, IOpCl= 0 IROHF=0.

 **********************************************************************

            Population analysis using the SCF Density.

 **********************************************************************

 Orbital symmetries:
       Occupied  (A) (A) (A) (A) (A) (A) (A) (A) (A) (A) (A) (A)
                 (A) (A) (A) (A) (A) (A) (A) (A) (A) (A) (A) (A)
                 (A) (A) (A) (A) (A) (A) (A) (A) (A) (A) (A) (A)
                 (A) (A) (A) (A) (A) (A) (A) (A) (A) (A) (A) (A)
                 (A) (A) (A) (A) (A) (A) (A) (A) (A) (A) (A) (A)
                 (A) (A) (A) (A) (A) (A) (A) (A) (A) (A) (A) (A)
                 (A) (A)
       Virtual   (A) (A) (A) (A) (A) (A) (A) (A) (A) (A) (A) (A)
                 (A) (A) (A) (A) (A) (A) (A) (A) (A) (A) (A) (A)
                 (A) (A) (A) (A) (A) (A) (A) (A) (A) (A) (A) (A)
                 (A) (A) (A) (A) (A) (A) (A) (A) (A) (A) (A) (A)
                 (A) (A) (A) (A) (A) (A) (A) (A) (A) (A) (A) (A)
                 (A) (A) (A) (A) (A) (A) (A) (A) (A) (A) (A) (A)
                 (A) (A) (A) (A) (A) (A) (A) (A) (A) (A) (A) (A)
                 (A) (A) (A) (A) (A) (A) (A) (A) (A) (A) (A) (A)
                 (A) (A) (A) (A) (A) (A) (A) (A) (A) (A) (A) (A)
                 (A) (A) (A) (A) (A) (A) (A) (A) (A) (A) (A) (A)
                 (A) (A) (A) (A) (A) (A) (A) (A) (A) (A) (A) (A)
                 (A) (A) (A) (A) (A) (A) (A) (A) (A) (A) (A) (A)
                 (A) (A) (A) (A) (A) (A) (A) (A) (A) (A) (A) (A)
                 (A) (A) (A) (A) (A) (A) (A) (A) (A) (A) (A) (A)
                 (A) (A) (A) (A) (A) (A) (A) (A) (A) (A) (A) (A)
                 (A) (A) (A) (A) (A) (A) (A) (A) (A) (A) (A) (A)
                 (A) (A) (A) (A) (A) (A) (A) (A) (A) (A) (A) (A)
                 (A) (A) (A) (A) (A) (A) (A) (A) (A) (A) (A) (A)
                 (A) (A) (A) (A) (A) (A) (A) (A) (A) (A) (A) (A)
                 (A) (A) (A) (A) (A) (A) (A) (A) (A) (A) (A) (A)
                 (A) (A) (A) (A) (A) (A) (A) (A) (A) (A) (A) (A)
                 (A) (A) (A) (A) (A) (A) (A) (A) (A) (A) (A) (A)
                 (A) (A) (A) (A) (A) (A) (A) (A) (A) (A) (A) (A)
                 (A) (A) (A) (A) (A) (A) (A) (A) (A) (A) (A) (A)
                 (A) (A) (A) (A) (A) (A) (A) (A) (A) (A) (A) (A)
                 (A) (A) (A) (A) (A) (A) (A) (A) (A) (A) (A) (A)
                 (A) (A) (A) (A) (A) (A) (A) (A) (A) (A) (A) (A)
                 (A) (A) (A) (A) (A) (A) (A) (A) (A) (A) (A) (A)
                 (A) (A) (A) (A) (A) (A) (A) (A) (A) (A) (A) (A)
                 (A) (A) (A) (A) (A) (A) (A) (A) (A) (A) (A) (A)
                 (A) (A) (A) (A) (A) (A) (A) (A) (A) (A) (A) (A)
                 (A) (A) (A) (A) (A) (A) (A) (A) (A) (A) (A) (A)
                 (A) (A) (A) (A) (A) (A) (A) (A) (A) (A) (A) (A)
                 (A) (A) (A) (A) (A) (A) (A) (A) (A) (A) (A) (A)
                 (A) (A) (A) (A) (A) (A) (A) (A) (A) (A) (A) (A)
                 (A) (A) (A) (A) (A) (A) (A) (A) (A) (A) (A) (A)
                 (A) (A) (A) (A) (A) (A) (A)
 The electronic state is 1-A.
 Alpha  occ. eigenvalues -- -100.63694 -14.14339  -9.96736  -9.95348  -9.95229
 Alpha  occ. eigenvalues --   -9.95108  -9.93233  -9.91755  -9.91729  -9.91555
 Alpha  occ. eigenvalues --   -9.91417  -9.91387  -9.91360  -9.91330  -9.90801
[...]
    40  H    0.000002   0.000008  -0.000018   0.000930  -0.000207  -0.000384
    41  H   -0.000015  -0.000112   0.000311  -0.006856   0.001798   0.001376
    42  H   -0.000000  -0.000000   0.000000  -0.000014  -0.000000  -0.000065
    43  H    0.000000  -0.000000   0.000000   0.000000   0.000000   0.000003
    44  H   -0.000000   0.000000  -0.000001   0.000000  -0.000000  -0.000006
    45  H    0.000001  -0.000003   0.000073  -0.000008   0.000001  -0.000004
    46  H   -0.000074   0.000076  -0.000063  -0.000482   0.000318  -0.000133
              25         26         27         28         29         30
     1  C   -0.000854   0.000079   0.000058  -0.000135   0.000388   0.000001
     2  C   -0.021749  -0.000503  -0.000435   0.000053   0.000283   0.000001
     3  C    0.366085  -0.012572   0.012614  -0.018908   0.015218   0.000163
     4  N   -0.031915  -0.025870  -0.034508   0.004734  -0.012917  -0.000473
     5  C    0.011531   0.349795   0.414984  -0.074144  -0.028831   0.012540
     6  C   -0.014883  -0.017825  -0.044030   0.430784   0.380654  -0.040766
     7  C    0.000522  -0.001996  -0.001901  -0.025296  -0.032781   0.398612
     8  C   -0.019851   0.019785  -0.019711   0.000685  -0.001876   0.000009
     9  C    0.000051  -0.014926  -0.001259  -0.000202  -0.000036   0.000006
    10  C    0.000099   0.000417   0.000170   0.000006   0.000007  -0.000000
    11  C    0.011151   0.002975   0.009062  -0.012367   0.001741  -0.000118
    12  C    0.000176   0.003883  -0.015135   0.052942  -0.004838   0.000181
    13  C   -0.000404  -0.000479   0.004973  -0.015428   0.002984  -0.000206
    14  C   -0.000014  -0.000022  -0.000511   0.009660  -0.000778   0.000045
    15  C   -0.000018  -0.000002   0.000268  -0.005568   0.000423   0.000060
    16  C    0.000039  -0.000049  -0.000198   0.006706  -0.000810   0.000028
    17  C    0.000607   0.000021   0.000809  -0.011436   0.001918   0.000009
    18  Cl   0.041032   0.038516   0.000967   0.000614   0.012067   0.000016
    19  H   -0.000243  -0.000001  -0.000000  -0.000000   0.000001  -0.000000
    20  H    0.004248  -0.000071  -0.000000  -0.000001   0.000058  -0.000000
    21  H    0.000422  -0.000010  -0.000002   0.000016   0.000004   0.000000
    22  H    0.004414  -0.000022  -0.000002   0.000000  -0.000017  -0.000000
    23  H   -0.002263  -0.000013  -0.000024  -0.000013  -0.000064   0.000000
    24  H   -0.006546   0.000658   0.000095  -0.000855  -0.006581   0.000003
    25  H    0.479035   0.000103   0.000135   0.001027   0.000631  -0.000034
    26  H    0.000103   0.490010  -0.012145   0.005700  -0.006829  -0.000360
    27  H    0.000135  -0.012145   0.451457   0.000075   0.004742   0.000176
    28  H    0.001027   0.005700   0.000075   0.509052  -0.023844  -0.002523
    29  H    0.000631  -0.006829   0.004742  -0.023844   0.534572  -0.002092
    30  H   -0.000034  -0.000360   0.000176  -0.002523  -0.002092   0.522520
    31  H   -0.000010   0.005570  -0.000607   0.007675  -0.005981  -0.023786
    32  H   -0.000034   0.000120   0.003350  -0.005798   0.006952  -0.022367
    33  H    0.001122   0.000881  -0.000167   0.000008  -0.000008  -0.000001
    34  H   -0.000289  -0.003875   0.000958  -0.000186  -0.000129   0.000001
    35  H   -0.000098   0.000687   0.001175  -0.000004   0.000006  -0.000001
    36  H    0.000056   0.000240  -0.005945  -0.000009  -0.000049  -0.000001
    37  H   -0.000005   0.000003  -0.000060  -0.000000  -0.000001   0.000000
    38  H   -0.000100   0.000273   0.000022  -0.000001  -0.000006  -0.000000
    39  H   -0.000001  -0.000013  -0.000003  -0.000000  -0.000000  -0.000000
    40  H   -0.000061   0.000487   0.000105   0.000401  -0.000066   0.000003
    41  H   -0.000347  -0.000234   0.000138   0.000021   0.000005  -0.000000
    42  H   -0.000010   0.000079   0.002158   0.000200   0.000084   0.000003
    43  H    0.000000   0.000000  -0.000042   0.000225  -0.000010  -0.000000
    44  H   -0.000000   0.000000   0.000001  -0.000020   0.000005   0.000000
    45  H    0.000000  -0.000000  -0.000000   0.000136  -0.000011   0.000000
    46  H   -0.000017   0.000026   0.000001  -0.000211   0.000115  -0.000001
              31         32         33         34         35         36
     1  C    0.000000   0.000001   0.000207   0.000351   0.000009   0.000000
     2  C   -0.000008   0.000003   0.004060  -0.009741  -0.000145  -0.000019
     3  C   -0.000606   0.000623  -0.022598   0.010198   0.000851  -0.001729
     4  N    0.000620  -0.000928  -0.025018  -0.022946  -0.000864  -0.012409
     5  C   -0.014185  -0.004043   0.013028  -0.022118  -0.014607   0.025117
     6  C   -0.037428  -0.046581  -0.000411   0.000078  -0.000594   0.001637
     7  C    0.405703   0.411247   0.000056   0.000001  -0.000074   0.000453
     8  C    0.000272  -0.000093   0.418041   0.357295  -0.052090  -0.045174
     9  C   -0.000050  -0.000042  -0.032394  -0.031307   0.414507   0.421122
    10  C    0.000005  -0.000000  -0.002082   0.000350  -0.017949  -0.039926
    11  C   -0.000014   0.000436  -0.011961   0.012725   0.014548  -0.003991
    12  C    0.000473  -0.004488  -0.000285  -0.001487  -0.001976   0.000002
    13  C   -0.000500   0.005855  -0.000116   0.000048   0.000979  -0.000055
    14  C    0.000176  -0.002005  -0.000013  -0.000004  -0.000047  -0.000004
    15  C   -0.000042   0.000817   0.000003   0.000001   0.000004   0.000001
    16  C    0.000030  -0.000431  -0.000007   0.000003   0.000004  -0.000002
    17  C   -0.000094   0.000701   0.000510  -0.000119  -0.000245   0.000066
    18  Cl   0.002545   0.000054   0.000498   0.042331   0.000079   0.001666
    19  H   -0.000000   0.000000   0.000010  -0.000014  -0.000000  -0.000000
    20  H   -0.000001  -0.000000   0.000059   0.000150  -0.000001  -0.000000
    21  H    0.000000  -0.000000  -0.000072  -0.000012   0.000000  -0.000000
    22  H   -0.000001  -0.000000   0.000908   0.000689  -0.000023   0.000001
    23  H   -0.000000  -0.000000  -0.005616  -0.000046   0.000057  -0.000040
    24  H    0.000014  -0.000122  -0.000252   0.001006   0.000021  -0.000061
    25  H   -0.000010  -0.000034   0.001122  -0.000289  -0.000098   0.000056
    26  H    0.005570   0.000120   0.000881  -0.003875   0.000687   0.000240
    27  H   -0.000607   0.003350  -0.000167   0.000958   0.001175  -0.005945
    28  H    0.007675  -0.005798   0.000008  -0.000186  -0.000004  -0.000009
    29  H   -0.005981   0.006952  -0.000008  -0.000129   0.000006  -0.000049
    30  H   -0.023786  -0.022367  -0.000001   0.000001  -0.000001  -0.000001
    31  H    0.548357  -0.031644   0.000000  -0.000084  -0.000000   0.000060
    32  H   -0.031644   0.537102  -0.000000  -0.000004   0.000014   0.000024
    33  H    0.000000  -0.000000   0.453741  -0.013615  -0.001739   0.004068
    34  H   -0.000084  -0.000004  -0.013615   0.498003   0.004795  -0.003207
    35  H   -0.000000   0.000014  -0.001739   0.004795   0.519571  -0.023900
    36  H    0.000060   0.000024   0.004068  -0.003207  -0.023900   0.510892
    37  H   -0.000000  -0.000000   0.003628  -0.000044  -0.006130   0.006735
    38  H   -0.000001   0.000000   0.000146   0.005420   0.006939  -0.005313
    39  H   -0.000000  -0.000000  -0.000123  -0.000233  -0.002496  -0.001631
    40  H    0.000001  -0.000031  -0.001431  -0.000093   0.000947   0.000659
    41  H    0.000002  -0.000005   0.003525   0.000273   0.000361   0.000016
    42  H    0.000009   0.001086   0.000010  -0.000000   0.000245   0.000065
    43  H    0.000002  -0.000125  -0.000000  -0.000000  -0.000001  -0.000000
    44  H   -0.000001   0.000007   0.000000  -0.000000  -0.000000   0.000000
    45  H    0.000000  -0.000002  -0.000000   0.000000   0.000000  -0.000000
    46  H   -0.000001   0.000009  -0.000004  -0.000021  -0.000007   0.000000
              37         38         39         40         41         42
     1  C   -0.000001   0.000005  -0.000000  -0.000064   0.000709   0.000003
     2  C   -0.000060   0.000032   0.000002   0.001102  -0.004198  -0.000021
     3  C   -0.000014   0.000268   0.000027   0.006899  -0.014574   0.000130
     4  N   -0.000537   0.000569  -0.000468  -0.021920  -0.028859  -0.001292
     5  C    0.000716  -0.001162   0.000169  -0.023976   0.011026   0.001598
     6  C    0.000015  -0.000046   0.000001   0.002602  -0.000447  -0.000832
     7  C    0.000001  -0.000000   0.000001  -0.000135   0.000048  -0.000039
     8  C   -0.005566  -0.012240   0.013031   0.002529   0.002110  -0.000453
     9  C   -0.035376  -0.043555  -0.041450  -0.002436  -0.001918  -0.000073
    10  C    0.402229   0.407879   0.397374   0.000399   0.000118  -0.000012
    11  C   -0.000801   0.000259  -0.000058   0.422998   0.415632  -0.003734
    12  C   -0.000029   0.000013  -0.000008  -0.050901  -0.045453  -0.077189
    13  C   -0.000002   0.000003   0.000002  -0.001021   0.002332   0.450329
    14  C    0.000000  -0.000000   0.000000   0.001638  -0.000536  -0.057529
    15  C    0.000000  -0.000000   0.000000  -0.000245  -0.000177   0.015525
    16  C   -0.000000   0.000000  -0.000000  -0.000657   0.001282  -0.005473
    17  C    0.000004  -0.000001  -0.000000   0.003730  -0.001200   0.018584
    18  Cl   0.000073   0.004424   0.000036  -0.000019   0.000001   0.000001
    19  H   -0.000000  -0.000000  -0.000000   0.000002  -0.000015  -0.000000
    20  H    0.000000  -0.000002  -0.000000   0.000008  -0.000112  -0.000000
    21  H   -0.000000  -0.000000   0.000000  -0.000018   0.000311   0.000000
    22  H    0.000010   0.000002  -0.000000   0.000930  -0.006856  -0.000014
    23  H    0.000008   0.000048   0.000000  -0.000207   0.001798  -0.000000
    24  H   -0.000002   0.000002  -0.000001  -0.000384   0.001376  -0.000065
    25  H   -0.000005  -0.000100  -0.000001  -0.000061  -0.000347  -0.000010
    26  H    0.000003   0.000273  -0.000013   0.000487  -0.000234   0.000079
    27  H   -0.000060   0.000022  -0.000003   0.000105   0.000138   0.002158
    28  H   -0.000000  -0.000001  -0.000000   0.000401   0.000021   0.000200
    29  H   -0.000001  -0.000006  -0.000000  -0.000066   0.000005   0.000084
    30  H    0.000000  -0.000000  -0.000000   0.000003  -0.000000   0.000003
    31  H   -0.000000  -0.000001  -0.000000   0.000001   0.000002   0.000009
    32  H   -0.000000   0.000000  -0.000000  -0.000031  -0.000005   0.001086
    33  H    0.003628   0.000146  -0.000123  -0.001431   0.003525   0.000010
    34  H   -0.000044   0.005420  -0.000233  -0.000093   0.000273  -0.000000
    35  H   -0.006130   0.006939  -0.002496   0.000947   0.000361   0.000245
    36  H    0.006735  -0.005313  -0.001631   0.000659   0.000016   0.000065
    37  H    0.543297  -0.031017  -0.021977   0.000234  -0.000017   0.000000
    38  H   -0.031017   0.549334  -0.023160  -0.000097   0.000004   0.000000
    39  H   -0.021977  -0.023160   0.522321   0.000022  -0.000008  -0.000000
    40  H    0.000234  -0.000097   0.000022   0.419555  -0.010651  -0.001316
    41  H   -0.000017   0.000004  -0.000008  -0.010651   0.429489   0.000330
    42  H    0.000000   0.000000  -0.000000  -0.001316   0.000330   0.505377
    43  H    0.000000  -0.000000  -0.000000   0.000012   0.000015  -0.005847
    44  H    0.000000  -0.000000  -0.000000   0.000002  -0.000000  -0.000083
    45  H   -0.000000   0.000000   0.000000   0.000013   0.000004   0.000005
    46  H    0.000000  -0.000000   0.000000  -0.000068  -0.001490   0.000132
              43         44         45         46
     1  C   -0.000000  -0.000000   0.000044  -0.000643
     2  C    0.000000   0.000001   0.000041  -0.005711
     3  C   -0.000006   0.000004  -0.000149   0.011742
     4  N   -0.000002  -0.000000  -0.000007  -0.001362
     5  C   -0.000085   0.000011  -0.000009  -0.000413
     6  C    0.000193  -0.000123   0.000027  -0.000167
     7  C    0.000020   0.000027  -0.000008   0.000009
     8  C   -0.000001  -0.000000  -0.000000  -0.000368
     9  C   -0.000001   0.000000   0.000000   0.000019
    10  C   -0.000000  -0.000000   0.000000  -0.000000
    11  C   -0.001157  -0.000117  -0.001017  -0.009237
    12  C    0.018560  -0.006701   0.018673  -0.075542
    13  C   -0.059264   0.020483  -0.002451   0.018233
    14  C    0.434877  -0.068216   0.014621  -0.005518
    15  C   -0.064058   0.444567  -0.063665   0.015973
    16  C    0.015197  -0.067062   0.434666  -0.056184
    17  C   -0.002771   0.020461  -0.058486   0.446459
    18  Cl  -0.000000   0.000000  -0.000000  -0.000003
    19  H    0.000000  -0.000000   0.000001  -0.000074
    20  H   -0.000000   0.000000  -0.000003   0.000076
    21  H    0.000000  -0.000001   0.000073  -0.000063
    22  H    0.000000   0.000000  -0.000008  -0.000482
    23  H    0.000000  -0.000000   0.000001   0.000318
    24  H    0.000003  -0.000006  -0.000004  -0.000133
    25  H    0.000000  -0.000000   0.000000  -0.000017
    26  H    0.000000   0.000000  -0.000000   0.000026
    27  H   -0.000042   0.000001  -0.000000   0.000001
    28  H    0.000225  -0.000020   0.000136  -0.000211
    29  H   -0.000010   0.000005  -0.000011   0.000115
    30  H   -0.000000   0.000000   0.000000  -0.000001
    31  H    0.000002  -0.000001   0.000000  -0.000001
    32  H   -0.000125   0.000007  -0.000002   0.000009
    33  H   -0.000000   0.000000  -0.000000  -0.000004
    34  H   -0.000000  -0.000000   0.000000  -0.000021
    35  H   -0.000001  -0.000000   0.000000  -0.000007
    36  H   -0.000000   0.000000  -0.000000   0.000000
    37  H    0.000000   0.000000  -0.000000   0.000000
    38  H   -0.000000  -0.000000   0.000000  -0.000000
    39  H   -0.000000  -0.000000   0.000000   0.000000
    40  H    0.000012   0.000002   0.000013  -0.000068
    41  H    0.000015  -0.000000   0.000004  -0.001490
    42  H   -0.005847  -0.000083   0.000005   0.000132
    43  H    0.520579  -0.007000  -0.000140   0.000005
    44  H   -0.007000   0.519281  -0.006827  -0.000091
    45  H   -0.000140  -0.006827   0.520197  -0.006238
    46  H    0.000005  -0.000091  -0.006238   0.499793
 Mulliken charges:
               1
     1  C   -0.450077
     2  C   -0.227627
     3  C   -0.309412
     4  N   -0.099318
     5  C   -0.288547
     6  C   -0.198488
     7  C   -0.464019
     8  C   -0.239168
     9  C   -0.224457
    10  C   -0.438160
    11  C   -0.376263
    12  C   -0.038089
    13  C   -0.103175
    14  C   -0.137517
    15  C   -0.128586
    16  C   -0.139899
    17  C   -0.102170
    18  Cl  -0.878960
    19  H    0.158755
    20  H    0.144098
    21  H    0.146577
    22  H    0.167653
    23  H    0.180063
    24  H    0.240590
    25  H    0.177261
    26  H    0.177512
    27  H    0.228192
    28  H    0.166232
    29  H    0.165696
    30  H    0.158352
    31  H    0.143531
    32  H    0.150344
    33  H    0.213404
    34  H    0.174900
    35  H    0.157194
    36  H    0.170586
    37  H    0.144688
    38  H    0.141058
    39  H    0.158643
    40  H    0.250520
    41  H    0.246171
    42  H    0.158029
    43  H    0.150821
    44  H    0.151397
    45  H    0.150526
    46  H    0.171142
 Sum of Mulliken charges =  -0.00000
 Mulliken charges with hydrogens summed into heavy atoms:
               1
     1  C   -0.000647
     2  C    0.120088
     3  C    0.108440
     4  N   -0.099318
     5  C    0.117157
     6  C    0.133439
     7  C   -0.011792
     8  C    0.149135
     9  C    0.103322
    10  C    0.006229
    11  C    0.120428
    12  C   -0.038089
    13  C    0.054854
    14  C    0.013303
    15  C    0.022811
    16  C    0.010627
    17  C    0.068972
    18  Cl  -0.878960
 Electronic spatial extent (au):  <R**2>=           6053.6468
 Charge=             -0.0000 electrons
 Dipole moment (field-independent basis, Debye):
    X=             13.7533    Y=             -0.2212    Z=             10.7140  Tot=             17.4354
 Quadrupole moment (field-independent basis, Debye-Ang):
   XX=           -161.2945   YY=           -108.0131   ZZ=           -133.9472
   XY=              0.6807   XZ=            -37.1420   YZ=             -0.1014
 Traceless Quadrupole moment (field-independent basis, Debye-Ang):
   XX=            -26.8762   YY=             26.4052   ZZ=              0.4711
   XY=              0.6807   XZ=            -37.1420   YZ=             -0.1014
 Octapole moment (field-independent basis, Debye-Ang**2):
  XXX=            239.4623  YYY=              6.0686  ZZZ=             56.5227  XYY=             13.7904
  XXY=             -7.6271  XXZ=             98.6610  XZZ=             48.9248  YZZ=             -4.4157
  YYZ=             13.0725  XYZ=             -0.9571
 Hexadecapole moment (field-independent basis, Debye-Ang**3):
 XXXX=          -5213.4261 YYYY=          -1888.2420 ZZZZ=          -1725.4059 XXXY=              6.9861
 XXXZ=           -560.2009 YYYX=             -6.7376 YYYZ=             -2.0132 ZZZX=           -193.7355
 ZZZY=              1.8921 XXYY=          -1056.1721 XXZZ=          -1335.9899 YYZZ=           -598.1455
 XXYZ=             -8.2116 YYXZ=            -23.6981 ZZXY=              8.2509
 N-N= 1.545465500145D+03 E-N=-5.761914672691D+03  KE= 1.136796305489D+03
 Unable to Open any file for archive entry.
 1\1\GINC-TCN706\SP\RBP86\TZVP\C16H28Cl1N1\ELENAA\21-Aug-2021\0\\# BP86
 /TZVP SCRF=COSMORS geom=CHECKPOINT guess=CHECKPOINT\\COSMO-file for #Y
 TRIOKYQEVFKGU-UHFFFAOYSA-M\\0,1\C,0,3.0295102281,0.1230608183,-2.27727
 28047\C,0,1.7210732506,-0.5071477678,-1.7760859802\C,0,1.5238090921,-0
 .142404649,-0.3068541997\N,0,0.20056597,-0.5704106051,0.3281223906\C,0
 ,0.2640661929,-0.2921891695,1.8395777542\C,0,0.9736486771,0.9866566566
 ,2.2924001071\C,0,0.6706015377,1.2203195393,3.7791410176\C,0,0.0395720
 559,-2.084859833,0.1224535855\C,0,-1.0800491918,-2.762935697,0.9102935
 366\C,0,-1.1135636187,-4.2557496484,0.5465378568\C,0,-1.007486932,0.12
 85740169,-0.3252496699\C,0,-1.0846217592,1.6151439958,-0.1168495023\C,
 0,-1.8773392509,2.1373604264,0.9193584143\C,0,-1.9243216467,3.51476576
 92,1.1515807727\C,0,-1.1866206903,4.3865589276,0.340895707\C,0,-0.4198
 605807,3.8777839272,-0.7148882737\C,0,-0.3761053954,2.4997777743,-0.94
 75444016\Cl,0,3.1310898366,-2.475344223,1.9548920983\H,0,3.2110913097,
 -0.1480501348,-3.3266811047\H,0,3.8882034039,-0.2250333849,-1.68295359
 59\H,0,2.9942818224,1.2214602018,-2.211002833\H,0,0.8842662036,-0.1486
 939829,-2.3960495926\H,0,1.7716821919,-1.5981348543,-1.9020063419\H,0,
 1.5886305889,0.9444974309,-0.17767963\H,0,2.2981243296,-0.6212578972,0
 .3137228601\H,0,0.8017382806,-1.1529385236,2.2631655507\H,0,-0.7761055
 278,-0.3057364207,2.1903789755\H,0,0.6518615691,1.8620108356,1.7133863
 281\H,0,2.0586265426,0.8744679366,2.1519475044\H,0,1.2242769933,2.0935
 305048,4.1521607981\H,0,0.9606469231,0.3501681098,4.3886406154\H,0,-0.
 4032317464,1.4051369642,3.9385909005\H,0,-0.1189791823,-2.2312700753,-
 0.9539989483\H,0,1.0143571995,-2.5103443659,0.4099183294\H,0,-2.059238
 4657,-2.3123265363,0.6873074265\H,0,-0.9117365193,-2.6591814577,1.9916
 401224\H,0,-1.3163659318,-4.4025387902,-0.5254507921\H,0,-0.1531070536
 ,-4.7401461776,0.780614487\H,0,-1.9004205764,-4.7719753397,1.114269630
 2\H,0,-1.8916904019,-0.3592793932,0.0997137247\H,0,-0.959555298,-0.126
 5968863,-1.3906270098\H,0,-2.4493294173,1.4590555109,1.5568360695\H,0,
 -2.5367131793,3.9078849325,1.9652226703\H,0,-1.2190214884,5.4624712634
 ,0.5235880998\H,0,0.140956878,4.5552620252,-1.3615521123\H,0,0.2137057
 764,2.1105832461,-1.7803605404\\Version=ES64L-G16RevC.01\State=1-A\HF=
 -1141.7991521\RMSD=3.146e-09\Dipole=-5.1434428,3.5575587,-2.8183425\Qu
 adrupole=-11.2478422,1.0202274,10.2276148,24.251153,-16.8989453,12.862
 0132\PG=C01 [X(C16H28Cl1N1)]\\@
 The archive entry for this job was punched.


 The hours that make us happy make us wise.
                         -- John Masefield
 Job cpu time:       0 days  0 hours 32 minutes 20.2 seconds.
 Elapsed time:       0 days  0 hours  1 minutes 22.0 seconds.
 File lengths (MBytes):  RWF=    201 Int=      0 D2E=      0 Chk=     26 Scr=      1
 Normal termination of Gaussian 16 at Sat Aug 21 10:05:29 2021.
