 Entering Gaussian System, Link 0=g16
 Input=ZGZLRWJZGFRHHQ-UHFFFAOYSA-N.gjf
 Output=ZGZLRWJZGFRHHQ-UHFFFAOYSA-N.log
 Initial command:
 /sw/arch/RedHatEnterpriseServer7/EB_production/2019/software/Gaussian/g16.c01/l1.exe "/scratch-local/elenaa.9715956/Gau-26876.inp" -scrdir="/scratch-local/elenaa.9715956/"
 Entering Link 1 = /sw/arch/RedHatEnterpriseServer7/EB_production/2019/software/Gaussian/g16.c01/l1.exe PID=     26877.
  
 Copyright (c) 1988-2019, Gaussian, Inc.  All Rights Reserved.
  
 This is part of the Gaussian(R) 16 program.  It is based on
 the Gaussian(R) 09 system (copyright 2009, Gaussian, Inc.),
 the Gaussian(R) 03 system (copyright 2003, Gaussian, Inc.),
 the Gaussian(R) 98 system (copyright 1998, Gaussian, Inc.),
 the Gaussian(R) 94 system (copyright 1995, Gaussian, Inc.),
 the Gaussian 92(TM) system (copyright 1992, Gaussian, Inc.),
 the Gaussian 90(TM) system (copyright 1990, Gaussian, Inc.),
 the Gaussian 88(TM) system (copyright 1988, Gaussian, Inc.),
 the Gaussian 86(TM) system (copyright 1986, Carnegie Mellon
 University), and the Gaussian 82(TM) system (copyright 1983,
 Carnegie Mellon University). Gaussian is a federally registered
 trademark of Gaussian, Inc.
  
 This software contains proprietary and confidential information,
 including trade secrets, belonging to Gaussian, Inc.
  
 This software is provided under written license and may be
 used, copied, transmitted, or stored only in accord with that
 written license.
  
 The following legend is applicable only to US Government
 contracts under FAR:
  
                    RESTRICTED RIGHTS LEGEND
  
 Use, reproduction and disclosure by the US Government is
 subject to restrictions as set forth in subparagraphs (a)
 and (c) of the Commercial Computer Software - Restricted
 Rights clause in FAR 52.227-19.
  
 Gaussian, Inc.
 340 Quinnipiac St., Bldg. 40, Wallingford CT 06492
  
  
 ---------------------------------------------------------------
 Warning -- This program may not be used in any manner that
 competes with the business of Gaussian, Inc. or will provide
 assistance to any competitor of Gaussian, Inc.  The licensee
 of this program is prohibited from giving any competitor of
 Gaussian, Inc. access to this program.  By using this program,
 the user acknowledges that Gaussian, Inc. is engaged in the
 business of creating and licensing software in the field of
 computational chemistry and represents and warrants to the
 licensee that it is not a competitor of Gaussian, Inc. and that
 it will not use this program in any manner prohibited above.
 ---------------------------------------------------------------
  

 Cite this work as:
 Gaussian 16, Revision C.01,
 M. J. Frisch, G. W. Trucks, H. B. Schlegel, G. E. Scuseria, 
 M. A. Robb, J. R. Cheeseman, G. Scalmani, V. Barone, 
 G. A. Petersson, H. Nakatsuji, X. Li, M. Caricato, A. V. Marenich, 
 J. Bloino, B. G. Janesko, R. Gomperts, B. Mennucci, H. P. Hratchian, 
 J. V. Ortiz, A. F. Izmaylov, J. L. Sonnenberg, D. Williams-Young, 
 F. Ding, F. Lipparini, F. Egidi, J. Goings, B. Peng, A. Petrone, 
 T. Henderson, D. Ranasinghe, V. G. Zakrzewski, J. Gao, N. Rega, 
 G. Zheng, W. Liang, M. Hada, M. Ehara, K. Toyota, R. Fukuda, 
 J. Hasegawa, M. Ishida, T. Nakajima, Y. Honda, O. Kitao, H. Nakai, 
 T. Vreven, K. Throssell, J. A. Montgomery, Jr., J. E. Peralta, 
 F. Ogliaro, M. J. Bearpark, J. J. Heyd, E. N. Brothers, K. N. Kudin, 
 V. N. Staroverov, T. A. Keith, R. Kobayashi, J. Normand, 
 K. Raghavachari, A. P. Rendell, J. C. Burant, S. S. Iyengar, 
 J. Tomasi, M. Cossi, J. M. Millam, M. Klene, C. Adamo, R. Cammi, 
 J. W. Ochterski, R. L. Martin, K. Morokuma, O. Farkas, 
 J. B. Foresman, and D. J. Fox, Gaussian, Inc., Wallingford CT, 2019.
 
 ******************************************
 Gaussian 16:  ES64L-G16RevC.01  3-Jul-2019
                23-Feb-2021 
 ******************************************
 %chk=ZGZLRWJZGFRHHQ-UHFFFAOYSA-N.chk
 %NProcShared=32
 Will use up to   32 processors via shared memory.
 -------------------------------------------------------------
 #P BP86/TZVP EmpiricalDispersion=GD3 SCRF=(Solvent=Water) Opt
 -------------------------------------------------------------
 1/18=20,19=15,26=3,38=1/1,3;
 2/9=110,12=2,17=6,18=5,40=1/2;
 3/5=19,7=101,11=2,25=1,30=1,70=2201,71=1,72=1,74=404,124=31/1,2,3;
 4//1;
 5/5=2,38=5,53=1/2;
 6/7=2,8=2,9=2,10=2,28=1/1;
 7//1,2,3,16;
 1/18=20,19=15,26=3/3(2);
 2/9=110/2;
 99//99;
 2/9=110/2;
 3/5=19,7=101,11=2,25=1,30=1,70=2205,71=1,72=1,74=404,124=31/1,2,3;
 4/5=5,16=3,69=1/1;
 5/5=2,38=5,53=1/2;
 7//1,2,3,16;
 1/18=20,19=15,26=3/3(-5);
 2/9=110/2;
 6/7=2,8=2,9=2,10=2,19=2,28=1/1;
 99/9=1/99;
 Leave Link    1 at Tue Feb 23 00:12:46 2021, MaxMem=           0 cpu:               1.9 elap:               0.1
 (Enter /sw/arch/RedHatEnterpriseServer7/EB_production/2019/software/Gaussian/g16.c01/l101.exe)
 -------------------------------------
 Particle #ZGZLRWJZGFRHHQ-UHFFFAOYSA-N
 -------------------------------------
 Symbolic Z-matrix:
 Charge =  1 Multiplicity = 1
 C                    -2.88907  -3.03491   4.06213 
 N                    -2.58092  -2.00025   3.12593 
 C                    -3.38262  -1.53      2.15291 
 C                    -2.68954  -0.53827   1.47176 
 N                    -1.4747   -0.42459   2.03844 
 C                    -0.42329   0.46037   1.63466 
 C                     0.4743   -0.21284   0.57505 
 O                     1.51309   0.67573   0.18181 
 C                    -1.41732  -1.32595   3.03959 
 H                    -2.34827  -2.88376   4.99939 
 H                    -3.95776  -3.05375   4.28611 
 H                    -2.6003   -4.00104   3.64539 
 H                    -4.33247  -1.84316   1.94073 
 H                    -3.04269  -0.0015    0.67563 
 H                     0.1874    0.73776   2.50021 
 H                    -0.8425    1.38402   1.22236 
 H                     0.9252   -1.12115   0.98536 
 H                    -0.11737  -0.47504  -0.3069 
 H                     2.02275   0.17004  -0.48534 
 H                    -0.60424  -1.48085   3.63926 
 
 ITRead=  0  0  0  0  0  0  0  0  0  0  0  0  0  0  0  0  0  0  0  0
 MicOpt= -1 -1 -1 -1 -1 -1 -1 -1 -1 -1 -1 -1 -1 -1 -1 -1 -1 -1 -1 -1
 NAtoms=     20 NQM=       20 NQMF=       0 NMMI=      0 NMMIF=      0
                NMic=       0 NMicF=      0.
                    Isotopes and Nuclear Properties:
 (Nuclear quadrupole moments (NQMom) in fm**2, nuclear magnetic moments (NMagM)
  in nuclear magnetons)

  Atom         1           2           3           4           5           6           7           8           9          10
 IAtWgt=          12          14          12          12          14          12          12          16          12           1
 AtmWgt=  12.0000000  14.0030740  12.0000000  12.0000000  14.0030740  12.0000000  12.0000000  15.9949146  12.0000000   1.0078250
 NucSpn=           0           2           0           0           2           0           0           0           0           1
 AtZEff=  -0.0000000  -0.0000000  -0.0000000  -0.0000000  -0.0000000  -0.0000000  -0.0000000  -0.0000000  -0.0000000  -0.0000000
 NQMom=    0.0000000   2.0440000   0.0000000   0.0000000   2.0440000   0.0000000   0.0000000   0.0000000   0.0000000   0.0000000
 NMagM=    0.0000000   0.4037610   0.0000000   0.0000000   0.4037610   0.0000000   0.0000000   0.0000000   0.0000000   2.7928460
 AtZNuc=   6.0000000   7.0000000   6.0000000   6.0000000   7.0000000   6.0000000   6.0000000   8.0000000   6.0000000   1.0000000

  Atom        11          12          13          14          15          16          17          18          19          20
 IAtWgt=           1           1           1           1           1           1           1           1           1           1
 AtmWgt=   1.0078250   1.0078250   1.0078250   1.0078250   1.0078250   1.0078250   1.0078250   1.0078250   1.0078250   1.0078250
 NucSpn=           1           1           1           1           1           1           1           1           1           1
 AtZEff=  -0.0000000  -0.0000000  -0.0000000  -0.0000000  -0.0000000  -0.0000000  -0.0000000  -0.0000000  -0.0000000  -0.0000000
 NQMom=    0.0000000   0.0000000   0.0000000   0.0000000   0.0000000   0.0000000   0.0000000   0.0000000   0.0000000   0.0000000
 NMagM=    2.7928460   2.7928460   2.7928460   2.7928460   2.7928460   2.7928460   2.7928460   2.7928460   2.7928460   2.7928460
 AtZNuc=   1.0000000   1.0000000   1.0000000   1.0000000   1.0000000   1.0000000   1.0000000   1.0000000   1.0000000   1.0000000
 Leave Link  101 at Tue Feb 23 00:12:46 2021, MaxMem=   104857600 cpu:               2.9 elap:               0.1
 (Enter /sw/arch/RedHatEnterpriseServer7/EB_production/2019/software/Gaussian/g16.c01/l103.exe)

 GradGradGradGradGradGradGradGradGradGradGradGradGradGradGradGradGradGrad
 Berny optimization.
 Initialization pass.
                           ----------------------------
                           !    Initial Parameters    !
                           ! (Angstroms and Degrees)  !
 --------------------------                            --------------------------
 ! Name  Definition              Value          Derivative Info.                !
 --------------------------------------------------------------------------------
 ! R1    R(1,2)                  1.429          estimate D2E/DX2                !
 ! R2    R(1,10)                 1.0926         estimate D2E/DX2                !
 ! R3    R(1,11)                 1.0921         estimate D2E/DX2                !
 ! R4    R(1,12)                 1.0911         estimate D2E/DX2                !
 ! R5    R(2,3)                  1.3456         estimate D2E/DX2                !
 ! R6    R(2,9)                  1.3476         estimate D2E/DX2                !
 ! R7    R(3,4)                  1.3885         estimate D2E/DX2                !
 ! R8    R(3,13)                 1.0224         estimate D2E/DX2                !
 ! R9    R(4,5)                  1.3453         estimate D2E/DX2                !
 ! R10   R(4,14)                 1.0231         estimate D2E/DX2                !
 ! R11   R(5,6)                  1.4324         estimate D2E/DX2                !
 ! R12   R(5,9)                  1.3483         estimate D2E/DX2                !
 ! R13   R(6,7)                  1.5433         estimate D2E/DX2                !
 ! R14   R(6,15)                 1.095          estimate D2E/DX2                !
 ! R15   R(6,16)                 1.0949         estimate D2E/DX2                !
 ! R16   R(7,8)                  1.4224         estimate D2E/DX2                !
 ! R17   R(7,17)                 1.0939         estimate D2E/DX2                !
 ! R18   R(7,18)                 1.0939         estimate D2E/DX2                !
 ! R19   R(8,19)                 0.9801         estimate D2E/DX2                !
 ! R20   R(9,20)                 1.0221         estimate D2E/DX2                !
 ! A1    A(2,1,10)             110.8001         estimate D2E/DX2                !
 ! A2    A(2,1,11)             110.9707         estimate D2E/DX2                !
 ! A3    A(2,1,12)             109.5013         estimate D2E/DX2                !
 ! A4    A(10,1,11)            108.1086         estimate D2E/DX2                !
 ! A5    A(10,1,12)            108.6112         estimate D2E/DX2                !
 ! A6    A(11,1,12)            108.7874         estimate D2E/DX2                !
 ! A7    A(1,2,3)              126.7493         estimate D2E/DX2                !
 ! A8    A(1,2,9)              126.1899         estimate D2E/DX2                !
 ! A9    A(3,2,9)              107.0523         estimate D2E/DX2                !
 ! A10   A(2,3,4)              107.8759         estimate D2E/DX2                !
 ! A11   A(2,3,13)             126.6227         estimate D2E/DX2                !
 ! A12   A(4,3,13)             125.5007         estimate D2E/DX2                !
 ! A13   A(3,4,5)              107.7261         estimate D2E/DX2                !
 ! A14   A(3,4,14)             125.7465         estimate D2E/DX2                !
 ! A15   A(5,4,14)             126.5243         estimate D2E/DX2                !
 ! A16   A(4,5,6)              126.6062         estimate D2E/DX2                !
 ! A17   A(4,5,9)              107.1395         estimate D2E/DX2                !
 ! A18   A(6,5,9)              126.2343         estimate D2E/DX2                !
 ! A19   A(5,6,7)              110.5466         estimate D2E/DX2                !
 ! A20   A(5,6,15)             110.0633         estimate D2E/DX2                !
 ! A21   A(5,6,16)             110.2611         estimate D2E/DX2                !
 ! A22   A(7,6,15)             109.1995         estimate D2E/DX2                !
 ! A23   A(7,6,16)             109.3979         estimate D2E/DX2                !
 ! A24   A(15,6,16)            107.3061         estimate D2E/DX2                !
 ! A25   A(6,7,8)              110.0029         estimate D2E/DX2                !
 ! A26   A(6,7,17)             110.1457         estimate D2E/DX2                !
 ! A27   A(6,7,18)             110.0926         estimate D2E/DX2                !
 ! A28   A(8,7,17)             108.7456         estimate D2E/DX2                !
 ! A29   A(8,7,18)             108.7742         estimate D2E/DX2                !
 ! A30   A(17,7,18)            109.0455         estimate D2E/DX2                !
 ! A31   A(7,8,19)             104.2194         estimate D2E/DX2                !
 ! A32   A(2,9,5)              110.2009         estimate D2E/DX2                !
 ! A33   A(2,9,20)             124.991          estimate D2E/DX2                !
 ! A34   A(5,9,20)             124.8053         estimate D2E/DX2                !
 ! D1    D(10,1,2,3)          -150.8851         estimate D2E/DX2                !
 ! D2    D(10,1,2,9)            30.3127         estimate D2E/DX2                !
 ! D3    D(11,1,2,3)           -30.7747         estimate D2E/DX2                !
 ! D4    D(11,1,2,9)           150.4231         estimate D2E/DX2                !
 ! D5    D(12,1,2,3)            89.333          estimate D2E/DX2                !
 ! D6    D(12,1,2,9)           -89.4692         estimate D2E/DX2                !
 ! D7    D(1,2,3,4)           -179.5881         estimate D2E/DX2                !
 ! D8    D(1,2,3,13)             0.1088         estimate D2E/DX2                !
 ! D9    D(9,2,3,4)             -0.5993         estimate D2E/DX2                !
 ! D10   D(9,2,3,13)           179.0977         estimate D2E/DX2                !
 ! D11   D(1,2,9,5)            179.7591         estimate D2E/DX2                !
 ! D12   D(1,2,9,20)             0.3482         estimate D2E/DX2                !
 ! D13   D(3,2,9,5)              0.763          estimate D2E/DX2                !
 ! D14   D(3,2,9,20)          -178.6479         estimate D2E/DX2                !
 ! D15   D(2,3,4,5)              0.2308         estimate D2E/DX2                !
 ! D16   D(2,3,4,14)           179.6241         estimate D2E/DX2                !
 ! D17   D(13,3,4,5)          -179.4705         estimate D2E/DX2                !
 ! D18   D(13,3,4,14)           -0.0771         estimate D2E/DX2                !
 ! D19   D(3,4,5,6)            178.681          estimate D2E/DX2                !
 ! D20   D(3,4,5,9)              0.2317         estimate D2E/DX2                !
 ! D21   D(14,4,5,6)            -0.7063         estimate D2E/DX2                !
 ! D22   D(14,4,5,9)          -179.1556         estimate D2E/DX2                !
 ! D23   D(4,5,6,7)            -89.226          estimate D2E/DX2                !
 ! D24   D(4,5,6,15)           150.0582         estimate D2E/DX2                !
 ! D25   D(4,5,6,16)            31.8679         estimate D2E/DX2                !
 ! D26   D(9,5,6,7)             88.9368         estimate D2E/DX2                !
 ! D27   D(9,5,6,15)           -31.7789         estimate D2E/DX2                !
 ! D28   D(9,5,6,16)          -149.9692         estimate D2E/DX2                !
 ! D29   D(4,5,9,2)             -0.6194         estimate D2E/DX2                !
 ! D30   D(4,5,9,20)           178.7928         estimate D2E/DX2                !
 ! D31   D(6,5,9,2)           -179.0762         estimate D2E/DX2                !
 ! D32   D(6,5,9,20)             0.3361         estimate D2E/DX2                !
 ! D33   D(5,6,7,8)            179.9556         estimate D2E/DX2                !
 ! D34   D(5,6,7,17)           -60.188          estimate D2E/DX2                !
 ! D35   D(5,6,7,18)            60.0972         estimate D2E/DX2                !
 ! D36   D(15,6,7,8)           -58.8153         estimate D2E/DX2                !
 ! D37   D(15,6,7,17)           61.0411         estimate D2E/DX2                !
 ! D38   D(15,6,7,18)         -178.6737         estimate D2E/DX2                !
 ! D39   D(16,6,7,8)            58.3507         estimate D2E/DX2                !
 ! D40   D(16,6,7,17)          178.2071         estimate D2E/DX2                !
 ! D41   D(16,6,7,18)          -61.5077         estimate D2E/DX2                !
 ! D42   D(6,7,8,19)          -179.8322         estimate D2E/DX2                !
 ! D43   D(17,7,8,19)           59.4648         estimate D2E/DX2                !
 ! D44   D(18,7,8,19)          -59.1764         estimate D2E/DX2                !
 --------------------------------------------------------------------------------
 Trust Radius=3.00D-01 FncErr=1.00D-07 GrdErr=1.00D-06 EigMax=2.50D+02 EigMin=1.00D-04
 Number of steps in this run=    108 maximum allowed number of steps=    120.
 GradGradGradGradGradGradGradGradGradGradGradGradGradGradGradGradGradGrad

 Leave Link  103 at Tue Feb 23 00:12:46 2021, MaxMem=   104857600 cpu:               0.8 elap:               0.1
 (Enter /sw/arch/RedHatEnterpriseServer7/EB_production/2019/software/Gaussian/g16.c01/l202.exe)
                          Input orientation:                          
 ---------------------------------------------------------------------
 Center     Atomic      Atomic             Coordinates (Angstroms)
 Number     Number       Type             X           Y           Z
 ---------------------------------------------------------------------
      1          6           0       -2.889070   -3.034910    4.062130
      2          7           0       -2.580920   -2.000250    3.125930
      3          6           0       -3.382620   -1.530000    2.152910
      4          6           0       -2.689540   -0.538270    1.471760
      5          7           0       -1.474700   -0.424590    2.038440
      6          6           0       -0.423290    0.460370    1.634660
      7          6           0        0.474300   -0.212840    0.575050
      8          8           0        1.513090    0.675730    0.181810
      9          6           0       -1.417320   -1.325950    3.039590
     10          1           0       -2.348270   -2.883760    4.999390
     11          1           0       -3.957760   -3.053750    4.286110
     12          1           0       -2.600300   -4.001040    3.645390
     13          1           0       -4.332470   -1.843160    1.940730
     14          1           0       -3.042690   -0.001500    0.675630
     15          1           0        0.187400    0.737760    2.500210
     16          1           0       -0.842500    1.384020    1.222360
     17          1           0        0.925200   -1.121150    0.985360
     18          1           0       -0.117370   -0.475040   -0.306900
     19          1           0        2.022750    0.170040   -0.485340
     20          1           0       -0.604240   -1.480850    3.639260
 ---------------------------------------------------------------------
                    Distance matrix (angstroms):
                    1          2          3          4          5
     1  C    0.000000
     2  N    1.428968   0.000000
     3  C    2.480618   1.345595   0.000000
     4  C    3.603199   2.210308   1.388472   0.000000
     5  N    3.592984   2.211122   2.207984   1.345320   0.000000
     6  C    4.918299   3.596374   3.603858   2.481876   1.432360
     7  C    5.606787   4.363049   4.370399   3.304524   2.446416
     8  O    6.942964   5.708733   5.720005   4.560687   3.685738
     9  C    2.476324   1.347628   2.165697   2.167273   1.348348
    10  H    1.092597   2.084363   3.317378   4.249937   3.946881
    11  H    1.092072   2.086041   2.683867   3.982033   4.257944
    12  H    1.091085   2.067214   2.990913   4.089426   4.079247
    13  H    2.829136   2.120685   1.022401   2.149858   3.191980
    14  H    4.549017   3.195654   2.152724   1.023064   2.120106
    15  H    5.112465   3.943580   4.243630   3.311004   2.080112
    16  H    5.637347   4.254288   3.976134   2.677491   2.082483
    17  H    5.260955   4.200921   4.481924   3.693600   2.711769
    18  H    5.772666   4.492178   4.222021   3.127889   2.710260
    19  H    7.421399   6.240610   6.250482   5.151468   4.353758
    20  H    2.795419   2.107261   3.151356   3.151982   2.106184
                    6          7          8          9         10
     6  C    0.000000
     7  C    1.543260   0.000000
     8  O    2.430375   1.422420   0.000000
     9  C    2.480497   3.300181   4.556417   0.000000
    10  H    5.119586   5.888591   7.126650   2.671003   0.000000
    11  H    5.645503   6.440954   7.790026   3.315560   1.768650
    12  H    5.355986   5.764600   7.126608   2.987062   1.773457
    13  H    4.547705   5.256240   6.603725   3.158021   3.791477
    14  H    2.827423   3.524769   4.632238   3.159795   5.242570
    15  H    1.095018   2.166147   2.671382   2.669261   5.078477
    16  H    1.094924   2.168625   2.670809   3.313107   5.894679
    17  H    2.177435   1.093934   2.054285   3.122372   5.471274
    18  H    2.176749   1.093919   2.054631   3.689568   6.239837
    19  H    3.249893   1.915391   0.980084   5.147543   7.649430
    20  H    2.796337   3.487188   4.592155   1.022104   2.619113
                   11         12         13         14         15
    11  H    0.000000
    12  H    1.774987   0.000000
    13  H    2.665848   3.250035   0.000000
    14  H    4.815511   5.001150   2.579869   0.000000
    15  H    5.894687   5.615954   5.234825   3.782734   0.000000
    16  H    6.227777   6.161153   4.807352   2.656956   1.763873
    17  H    6.202676   5.272445   5.392321   4.134453   2.508917
    18  H    6.518748   5.849634   4.968970   3.122035   3.073050
    19  H    8.302172   7.472177   7.094196   5.199611   3.550257
    20  H    3.760123   3.214911   4.112903   4.113103   2.616555
                   16         17         18         19         20
    16  H    0.000000
    17  H    3.075193   0.000000
    18  H    2.514071   1.781670   0.000000
    19  H    3.549598   2.243824   2.242339   0.000000
    20  H    3.755749   3.084113   4.101326   5.161283   0.000000
 Stoichiometry    C6H11N2O(1+)
 Framework group  C1[X(C6H11N2O)]
 Deg. of freedom    54
 Full point group                 C1      NOp   1
 Largest Abelian subgroup         C1      NOp   1
 Largest concise Abelian subgroup C1      NOp   1
                         Standard orientation:                         
 ---------------------------------------------------------------------
 Center     Atomic      Atomic             Coordinates (Angstroms)
 Number     Number       Type             X           Y           Z
 ---------------------------------------------------------------------
      1          6           0       -3.209380   -0.938300   -0.204488
      2          7           0       -1.993416   -0.204723   -0.045599
      3          6           0       -1.809309    1.108209   -0.275686
      4          6           0       -0.480340    1.406007   -0.005480
      5          7           0        0.124304    0.267716    0.379989
      6          6           0        1.504432    0.109567    0.729115
      7          6           0        2.343637   -0.231018   -0.520442
      8          8           0        3.711320   -0.384429   -0.161017
      9          6           0       -0.805480   -0.708104    0.343649
     10          1           0       -3.246649   -1.782360    0.488290
     11          1           0       -4.076871   -0.303232   -0.012743
     12          1           0       -3.272965   -1.321578   -1.224058
     13          1           0       -2.513839    1.775748   -0.597139
     14          1           0       -0.043935    2.326921   -0.095640
     15          1           0        1.615805   -0.691736    1.467068
     16          1           0        1.887799    1.028119    1.185349
     17          1           0        1.990929   -1.164753   -0.968133
     18          1           0        2.261556    0.572121   -1.258608
     19          1           0        4.160479   -0.593511   -1.006657
     20          1           0       -0.630452   -1.689418    0.569672
 ---------------------------------------------------------------------
 Rotational constants (GHZ):           4.8420143           0.7835727           0.7216220
 Leave Link  202 at Tue Feb 23 00:12:46 2021, MaxMem=   104857600 cpu:               0.7 elap:               0.1
 (Enter /sw/arch/RedHatEnterpriseServer7/EB_production/2019/software/Gaussian/g16.c01/l301.exe)
 Standard basis: TZVP (5D, 7F)
 Ernie: Thresh=  0.10000D-02 Tol=  0.10000D-05 Strict=F.
 There are   246 symmetry adapted cartesian basis functions of A   symmetry.
 There are   237 symmetry adapted basis functions of A   symmetry.
   237 basis functions,   403 primitive gaussians,   246 cartesian basis functions
    34 alpha electrons       34 beta electrons
       nuclear repulsion energy       458.0030384080 Hartrees.
 IExCor=  404 DFT=T Ex=B Corr=P86 ExCW=0 ScaHFX=  0.000000
 ScaDFX=  1.000000  1.000000  1.000000  1.000000 ScalE2=  1.000000  1.000000
 IRadAn=      5 IRanWt=     -1 IRanGd=            0 ICorTp=0 IEmpDi=131
 NAtoms=   20 NActive=   20 NUniq=   20 SFac= 1.00D+00 NAtFMM=   60 NAOKFM=F Big=F
 Integral buffers will be    131072 words long.
 Raffenetti 2 integral format.
 Two-electron integral symmetry is turned on.
 R6Disp:  Grimme-D3 Dispersion energy=       -0.0155774922 Hartrees.
 Nuclear repulsion after empirical dispersion term =      457.9874609158 Hartrees.
 ------------------------------------------------------------------------------
 Polarizable Continuum Model (PCM)
 =================================
 Model                : PCM.
 Atomic radii         : UFF (Universal Force Field).
 Polarization charges : Total charges.
 Charge compensation  : None.
 Solution method      : On-the-fly selection.
 Cavity type          : Scaled VdW (van der Waals Surface) (Alpha=1.100).
 Cavity algorithm     : GePol (No added spheres)
                        Default sphere list used, NSphG=   20.
                        Lebedev-Laikov grids with approx.  5.0 points / Ang**2.
                        Smoothing algorithm: York/Karplus (Gamma=1.0000).
                        Polarization charges: spherical gaussians, with
                                              point-specific exponents (IZeta= 3).
                        Self-potential: point-specific (ISelfS= 7).
                        Self-field    : sphere-specific E.n sum rule (ISelfD= 2).
 1st derivatives      : Analytical E(r).r(x)/FMM algorithm (CHGder, D1EAlg=3).
                        Cavity 1st derivative terms included.
 Solvent              : Water, Eps=  78.355300 Eps(inf)=   1.777849
 ------------------------------------------------------------------------------
 Spheres list:
 ISph  on   Nord     Re0    Alpha      Xe            Ye            Ze
    1   C      1    1.9255  1.100     -3.209380     -0.938300     -0.204488
    2   N      2    1.8300  1.100     -1.993416     -0.204723     -0.045599
    3   C      3    1.9255  1.100     -1.809309      1.108209     -0.275686
    4   C      4    1.9255  1.100     -0.480340      1.406007     -0.005480
    5   N      5    1.8300  1.100      0.124304      0.267716      0.379989
    6   C      6    1.9255  1.100      1.504432      0.109567      0.729115
    7   C      7    1.9255  1.100      2.343637     -0.231018     -0.520442
    8   O      8    1.7500  1.100      3.711320     -0.384429     -0.161017
    9   C      9    1.9255  1.100     -0.805480     -0.708104      0.343649
   10   H     10    1.4430  1.100     -3.246649     -1.782360      0.488290
   11   H     11    1.4430  1.100     -4.076871     -0.303232     -0.012743
   12   H     12    1.4430  1.100     -3.272965     -1.321578     -1.224058
   13   H     13    1.4430  1.100     -2.513839      1.775748     -0.597139
   14   H     14    1.4430  1.100     -0.043935      2.326921     -0.095640
   15   H     15    1.4430  1.100      1.615805     -0.691736      1.467068
   16   H     16    1.4430  1.100      1.887799      1.028119      1.185349
   17   H     17    1.4430  1.100      1.990929     -1.164753     -0.968133
   18   H     18    1.4430  1.100      2.261556      0.572121     -1.258608
   19   H     19    1.4430  1.100      4.160479     -0.593511     -1.006657
   20   H     20    1.4430  1.100     -0.630452     -1.689418      0.569672
 ------------------------------------------------------------------------------
 GePol: Number of generator spheres                  =      20
 GePol: Total number of spheres                      =      20
 GePol: Number of exposed spheres                    =      20 (100.00%)
 GePol: Number of points                             =    1584
 GePol: Average weight of points                     =       0.13
 GePol: Minimum weight of points                     =   0.16D-09
 GePol: Maximum weight of points                     =    0.20577
 GePol: Number of points with low weight             =     106
 GePol: Fraction of low-weight points (<1% of avg)   =       6.69%
 GePol: Cavity surface area                          =    208.144 Ang**2
 GePol: Cavity volume                                =    199.882 Ang**3
 Leave Link  301 at Tue Feb 23 00:12:46 2021, MaxMem=   104857600 cpu:               2.0 elap:               0.1
 (Enter /sw/arch/RedHatEnterpriseServer7/EB_production/2019/software/Gaussian/g16.c01/l302.exe)
 NPDir=0 NMtPBC=     1 NCelOv=     1 NCel=       1 NClECP=     1 NCelD=      1
         NCelK=      1 NCelE2=     1 NClLst=     1 CellRange=     0.0.
 One-electron integrals computed using PRISM.
 One-electron integral symmetry used in STVInt
 PrsmSu:  requested number of processors reduced to:  29 ShMem   1 Linda.
 NBasis=   237 RedAO= T EigKep=  1.71D-04  NBF=   237
 NBsUse=   237 1.00D-06 EigRej= -1.00D+00 NBFU=   237
 Precomputing XC quadrature grid using
 IXCGrd= 4 IRadAn=           5 IRanWt=          -1 IRanGd=           0 AccXCQ= 0.00D+00.
 Generated NRdTot=       0 NPtTot=           0 NUsed=           0 NTot=          32
 NSgBfM=   243   243   243   243   243 MxSgAt=    20 MxSgA2=    20.
 Leave Link  302 at Tue Feb 23 00:12:47 2021, MaxMem=   104857600 cpu:               6.7 elap:               0.2
 (Enter /sw/arch/RedHatEnterpriseServer7/EB_production/2019/software/Gaussian/g16.c01/l303.exe)
 DipDrv:  MaxL=1.
 Leave Link  303 at Tue Feb 23 00:12:47 2021, MaxMem=   104857600 cpu:               3.9 elap:               0.2
 (Enter /sw/arch/RedHatEnterpriseServer7/EB_production/2019/software/Gaussian/g16.c01/l401.exe)
 ExpMin= 9.52D-02 ExpMax= 2.70D+04 ExpMxC= 9.22D+02 IAcc=3 IRadAn=         5 AccDes= 0.00D+00
 Harris functional with IExCor=  404 and IRadAn=       5 diagonalized for initial guess.
 HarFok:  IExCor=  404 AccDes= 0.00D+00 IRadAn=         5 IDoV= 1 UseB2=F ITyADJ=14
 ICtDFT=  3500011 ScaDFX=  1.000000  1.000000  1.000000  1.000000
 FoFCou: FMM=F IPFlag=           0 FMFlag=      100000 FMFlg1=           0
         NFxFlg=           0 DoJE=T BraDBF=F KetDBF=T FulRan=T
         wScrn=  0.000000 ICntrl=       500 IOpCl=  0 I1Cent=   200000004 NGrid=           0
         NMat0=    1 NMatS0=      1 NMatT0=    0 NMatD0=    1 NMtDS0=    0 NMtDT0=    0
 Petite list used in FoFCou.
 Harris En= -420.039790187822    
 JPrj=0 DoOrth=F DoCkMO=F.
 Leave Link  401 at Tue Feb 23 00:12:48 2021, MaxMem=   104857600 cpu:              12.3 elap:               0.5
 (Enter /sw/arch/RedHatEnterpriseServer7/EB_production/2019/software/Gaussian/g16.c01/l502.exe)
 Integral symmetry usage will be decided dynamically.
 Closed shell SCF:
 Using DIIS extrapolation, IDIIS=  1040.
 NGot=   104857600 LenX=   104725612 LenY=   104664655
 Requested convergence on RMS density matrix=1.00D-08 within 128 cycles.
 Requested convergence on MAX density matrix=1.00D-06.
 Requested convergence on             energy=1.00D-06.
 No special actions if energy rises.
 Fock matrices will be formed incrementally for  20 cycles.

 Cycle   1  Pass 1  IDiag  1:
 FoFJK:  IHMeth= 1 ICntrl=     500 DoSepK=F KAlg= 0 I1Cent=           0 FoldK=F
 IRaf= 910000000 NMat=       1 IRICut=       1 DoRegI=T DoRafI=F ISym2E= 0 IDoP0=0 IntGTp=1.
 FoFCou: FMM=F IPFlag=           0 FMFlag=      100000 FMFlg1=           0
         NFxFlg=           0 DoJE=T BraDBF=F KetDBF=F FulRan=T
         wScrn=  0.000000 ICntrl=       500 IOpCl=  0 I1Cent=           0 NGrid=           0
         NMat0=    1 NMatS0=      1 NMatT0=    0 NMatD0=    1 NMtDS0=    0 NMtDT0=    0
 Symmetry not used in FoFCou.
 Inv3:  Mode=1 IEnd=     7527168.
 Iteration    1 A*A^-1 deviation from unit magnitude is 3.11D-15 for    563.
 Iteration    1 A*A^-1 deviation from orthogonality  is 1.98D-15 for   1496    757.
 Iteration    1 A^-1*A deviation from unit magnitude is 2.89D-15 for    590.
 Iteration    1 A^-1*A deviation from orthogonality  is 2.11D-15 for   1458    976.
 E= -419.825322902500    
 DIIS: error= 2.72D-02 at cycle   1 NSaved=   1.
 NSaved= 1 IEnMin= 1 EnMin= -419.825322902500     IErMin= 1 ErrMin= 2.72D-02
 ErrMax= 2.72D-02  0.00D+00 EMaxC= 1.00D-01 BMatC= 1.68D-01 BMatP= 1.68D-01
 IDIUse=3 WtCom= 7.28D-01 WtEn= 2.72D-01
 Coeff-Com:  0.100D+01
 Coeff-En:   0.100D+01
 Coeff:      0.100D+01
 Gap=     0.136 Goal=   None    Shift=    0.000
 GapD=    0.136 DampG=1.000 DampE=0.500 DampFc=0.5000 IDamp=-1.
 Damping current iteration by 5.00D-01
 RMSDP=7.09D-03 MaxDP=6.44D-01              OVMax= 2.07D-01

 Cycle   2  Pass 1  IDiag  1:
 RMSU=  3.54D-03    CP:  1.01D+00
 E= -419.860036457045     Delta-E=       -0.034713554545 Rises=F Damp=T
 DIIS: error= 1.41D-02 at cycle   2 NSaved=   2.
 NSaved= 2 IEnMin= 2 EnMin= -419.860036457045     IErMin= 2 ErrMin= 1.41D-02
 ErrMax= 1.41D-02  0.00D+00 EMaxC= 1.00D-01 BMatC= 3.05D-02 BMatP= 1.68D-01
 IDIUse=3 WtCom= 8.59D-01 WtEn= 1.41D-01
 Coeff-Com:  0.235D+00 0.765D+00
 Coeff-En:   0.372D+00 0.628D+00
 Coeff:      0.254D+00 0.746D+00
 Gap=     0.186 Goal=   None    Shift=    0.000
 RMSDP=2.34D-03 MaxDP=2.45D-01 DE=-3.47D-02 OVMax= 1.64D-01

 Cycle   3  Pass 1  IDiag  1:
 RMSU=  9.79D-04    CP:  9.99D-01  4.02D-01
 E= -419.957327876512     Delta-E=       -0.097291419467 Rises=F Damp=F
 DIIS: error= 7.80D-03 at cycle   3 NSaved=   3.
 NSaved= 3 IEnMin= 3 EnMin= -419.957327876512     IErMin= 3 ErrMin= 7.80D-03
 ErrMax= 7.80D-03  0.00D+00 EMaxC= 1.00D-01 BMatC= 1.26D-02 BMatP= 3.05D-02
 IDIUse=3 WtCom= 9.22D-01 WtEn= 7.80D-02
 Coeff-Com:  0.598D-01 0.383D+00 0.557D+00
 Coeff-En:   0.000D+00 0.000D+00 0.100D+01
 Coeff:      0.551D-01 0.353D+00 0.592D+00
 Gap=     0.170 Goal=   None    Shift=    0.000
 RMSDP=6.66D-04 MaxDP=3.51D-02 DE=-9.73D-02 OVMax= 5.32D-02

 Cycle   4  Pass 1  IDiag  1:
 RMSU=  3.99D-04    CP:  1.01D+00  5.29D-01  7.26D-01
 E= -419.965141512659     Delta-E=       -0.007813636146 Rises=F Damp=F
 DIIS: error= 3.56D-03 at cycle   4 NSaved=   4.
 NSaved= 4 IEnMin= 4 EnMin= -419.965141512659     IErMin= 4 ErrMin= 3.56D-03
 ErrMax= 3.56D-03  0.00D+00 EMaxC= 1.00D-01 BMatC= 3.45D-03 BMatP= 1.26D-02
 IDIUse=3 WtCom= 9.64D-01 WtEn= 3.56D-02
 Coeff-Com:  0.971D-02 0.114D+00 0.363D+00 0.514D+00
 Coeff-En:   0.000D+00 0.000D+00 0.249D+00 0.751D+00
 Coeff:      0.936D-02 0.110D+00 0.359D+00 0.522D+00
 Gap=     0.163 Goal=   None    Shift=    0.000
 RMSDP=2.42D-04 MaxDP=8.79D-03 DE=-7.81D-03 OVMax= 2.57D-02

 Cycle   5  Pass 1  IDiag  1:
 RMSU=  9.66D-05    CP:  1.00D+00  4.92D-01  7.97D-01  5.93D-01
 E= -419.968072451511     Delta-E=       -0.002930938852 Rises=F Damp=F
 DIIS: error= 1.35D-03 at cycle   5 NSaved=   5.
 NSaved= 5 IEnMin= 5 EnMin= -419.968072451511     IErMin= 5 ErrMin= 1.35D-03
 ErrMax= 1.35D-03  0.00D+00 EMaxC= 1.00D-01 BMatC= 2.47D-04 BMatP= 3.45D-03
 IDIUse=3 WtCom= 9.86D-01 WtEn= 1.35D-02
 Coeff-Com:  0.164D-02 0.419D-01 0.179D+00 0.315D+00 0.462D+00
 Coeff-En:   0.000D+00 0.000D+00 0.000D+00 0.000D+00 0.100D+01
 Coeff:      0.161D-02 0.413D-01 0.177D+00 0.311D+00 0.469D+00
 Gap=     0.164 Goal=   None    Shift=    0.000
 RMSDP=6.29D-05 MaxDP=2.54D-03 DE=-2.93D-03 OVMax= 7.92D-03

 Cycle   6  Pass 1  IDiag  1:
 RMSU=  4.27D-05    CP:  1.00D+00  4.90D-01  7.92D-01  6.32D-01  5.64D-01
 E= -419.968259283898     Delta-E=       -0.000186832387 Rises=F Damp=F
 DIIS: error= 5.31D-04 at cycle   6 NSaved=   6.
 NSaved= 6 IEnMin= 6 EnMin= -419.968259283898     IErMin= 6 ErrMin= 5.31D-04
 ErrMax= 5.31D-04  0.00D+00 EMaxC= 1.00D-01 BMatC= 4.25D-05 BMatP= 2.47D-04
 IDIUse=3 WtCom= 9.95D-01 WtEn= 5.31D-03
 Coeff-Com: -0.328D-03 0.118D-01 0.655D-01 0.131D+00 0.324D+00 0.468D+00
 Coeff-En:   0.000D+00 0.000D+00 0.000D+00 0.000D+00 0.169D+00 0.831D+00
 Coeff:     -0.326D-03 0.117D-01 0.651D-01 0.131D+00 0.323D+00 0.470D+00
 Gap=     0.164 Goal=   None    Shift=    0.000
 RMSDP=2.25D-05 MaxDP=8.11D-04 DE=-1.87D-04 OVMax= 2.26D-03

 Cycle   7  Pass 1  IDiag  1:
 RMSU=  1.20D-05    CP:  1.00D+00  4.91D-01  7.94D-01  6.29D-01  6.16D-01
                    CP:  5.98D-01
 E= -419.968294847013     Delta-E=       -0.000035563115 Rises=F Damp=F
 DIIS: error= 1.23D-04 at cycle   7 NSaved=   7.
 NSaved= 7 IEnMin= 7 EnMin= -419.968294847013     IErMin= 7 ErrMin= 1.23D-04
 ErrMax= 1.23D-04  0.00D+00 EMaxC= 1.00D-01 BMatC= 3.51D-06 BMatP= 4.25D-05
 IDIUse=3 WtCom= 9.99D-01 WtEn= 1.23D-03
 EnCoef did     6 forward-backward iterations
 Coeff-Com: -0.270D-03 0.496D-02 0.303D-01 0.637D-01 0.183D+00 0.313D+00
 Coeff-Com:  0.405D+00
 Coeff-En:   0.000D+00 0.000D+00 0.000D+00 0.000D+00 0.000D+00 0.176D-02
 Coeff-En:   0.998D+00
 Coeff:     -0.270D-03 0.496D-02 0.303D-01 0.636D-01 0.183D+00 0.313D+00
 Coeff:      0.406D+00
 Gap=     0.164 Goal=   None    Shift=    0.000
 RMSDP=6.63D-06 MaxDP=2.05D-04 DE=-3.56D-05 OVMax= 6.53D-04

 Cycle   8  Pass 1  IDiag  1:
 RMSU=  2.96D-06    CP:  1.00D+00  4.92D-01  7.95D-01  6.30D-01  6.24D-01
                    CP:  5.96D-01  5.24D-01
 E= -419.968297982832     Delta-E=       -0.000003135819 Rises=F Damp=F
 DIIS: error= 2.10D-05 at cycle   8 NSaved=   8.
 NSaved= 8 IEnMin= 8 EnMin= -419.968297982832     IErMin= 8 ErrMin= 2.10D-05
 ErrMax= 2.10D-05  0.00D+00 EMaxC= 1.00D-01 BMatC= 1.66D-07 BMatP= 3.51D-06
 IDIUse=1 WtCom= 1.00D+00 WtEn= 0.00D+00
 Coeff-Com: -0.124D-03 0.209D-02 0.135D-01 0.287D-01 0.863D-01 0.151D+00
 Coeff-Com:  0.235D+00 0.484D+00
 Coeff:     -0.124D-03 0.209D-02 0.135D-01 0.287D-01 0.863D-01 0.151D+00
 Coeff:      0.235D+00 0.484D+00
 Gap=     0.164 Goal=   None    Shift=    0.000
 RMSDP=1.76D-06 MaxDP=6.61D-05 DE=-3.14D-06 OVMax= 2.24D-04

 Cycle   9  Pass 1  IDiag  1:
 RMSU=  1.35D-06    CP:  1.00D+00  4.91D-01  7.95D-01  6.31D-01  6.27D-01
                    CP:  5.99D-01  5.34D-01  6.54D-01
 E= -419.968298072549     Delta-E=       -0.000000089717 Rises=F Damp=F
 DIIS: error= 9.14D-06 at cycle   9 NSaved=   9.
 NSaved= 9 IEnMin= 9 EnMin= -419.968298072549     IErMin= 9 ErrMin= 9.14D-06
 ErrMax= 9.14D-06  0.00D+00 EMaxC= 1.00D-01 BMatC= 3.25D-08 BMatP= 1.66D-07
 IDIUse=1 WtCom= 1.00D+00 WtEn= 0.00D+00
 Coeff-Com: -0.141D-04 0.234D-03 0.189D-02 0.400D-02 0.138D-01 0.252D-01
 Coeff-Com:  0.551D-01 0.321D+00 0.579D+00
 Coeff:     -0.141D-04 0.234D-03 0.189D-02 0.400D-02 0.138D-01 0.252D-01
 Coeff:      0.551D-01 0.321D+00 0.579D+00
 Gap=     0.164 Goal=   None    Shift=    0.000
 RMSDP=6.41D-07 MaxDP=2.66D-05 DE=-8.97D-08 OVMax= 8.95D-05

 Cycle  10  Pass 1  IDiag  1:
 RMSU=  3.65D-07    CP:  1.00D+00  4.91D-01  7.95D-01  6.30D-01  6.27D-01
                    CP:  6.00D-01  5.31D-01  7.45D-01  6.93D-01
 E= -419.968298118820     Delta-E=       -0.000000046272 Rises=F Damp=F
 DIIS: error= 1.40D-06 at cycle  10 NSaved=  10.
 NSaved=10 IEnMin=10 EnMin= -419.968298118820     IErMin=10 ErrMin= 1.40D-06
 ErrMax= 1.40D-06  0.00D+00 EMaxC= 1.00D-01 BMatC= 6.42D-10 BMatP= 3.25D-08
 IDIUse=1 WtCom= 1.00D+00 WtEn= 0.00D+00
 Coeff-Com:  0.962D-06-0.680D-05 0.123D-03 0.254D-03 0.141D-02 0.292D-02
 Coeff-Com:  0.119D-01 0.103D+00 0.234D+00 0.646D+00
 Coeff:      0.962D-06-0.680D-05 0.123D-03 0.254D-03 0.141D-02 0.292D-02
 Coeff:      0.119D-01 0.103D+00 0.234D+00 0.646D+00
 Gap=     0.164 Goal=   None    Shift=    0.000
 RMSDP=1.66D-07 MaxDP=8.39D-06 DE=-4.63D-08 OVMax= 1.38D-05

 Cycle  11  Pass 1  IDiag  1:
 RMSU=  1.03D-07    CP:  1.00D+00  4.91D-01  7.95D-01  6.30D-01  6.27D-01
                    CP:  6.00D-01  5.34D-01  7.45D-01  7.32D-01  8.44D-01
 E= -419.968298119207     Delta-E=       -0.000000000386 Rises=F Damp=F
 DIIS: error= 1.08D-06 at cycle  11 NSaved=  11.
 NSaved=11 IEnMin=11 EnMin= -419.968298119207     IErMin=11 ErrMin= 1.08D-06
 ErrMax= 1.08D-06  0.00D+00 EMaxC= 1.00D-01 BMatC= 2.73D-10 BMatP= 6.42D-10
 IDIUse=1 WtCom= 1.00D+00 WtEn= 0.00D+00
 Coeff-Com:  0.194D-05-0.210D-04-0.648D-04-0.151D-03-0.282D-03-0.364D-03
 Coeff-Com:  0.278D-02 0.367D-01 0.980D-01 0.429D+00 0.435D+00
 Coeff:      0.194D-05-0.210D-04-0.648D-04-0.151D-03-0.282D-03-0.364D-03
 Coeff:      0.278D-02 0.367D-01 0.980D-01 0.429D+00 0.435D+00
 Gap=     0.164 Goal=   None    Shift=    0.000
 RMSDP=6.57D-08 MaxDP=3.14D-06 DE=-3.86D-10 OVMax= 4.57D-06

 Cycle  12  Pass 1  IDiag  1:
 RMSU=  3.16D-08    CP:  1.00D+00  4.91D-01  7.95D-01  6.30D-01  6.27D-01
                    CP:  6.00D-01  5.34D-01  7.50D-01  7.26D-01  8.60D-01
                    CP:  6.15D-01
 E= -419.968298119443     Delta-E=       -0.000000000236 Rises=F Damp=F
 DIIS: error= 1.32D-07 at cycle  12 NSaved=  12.
 NSaved=12 IEnMin=12 EnMin= -419.968298119443     IErMin=12 ErrMin= 1.32D-07
 ErrMax= 1.32D-07  0.00D+00 EMaxC= 1.00D-01 BMatC= 4.56D-12 BMatP= 2.73D-10
 IDIUse=1 WtCom= 1.00D+00 WtEn= 0.00D+00
 Coeff-Com:  0.802D-06-0.880D-05-0.362D-04-0.834D-04-0.220D-03-0.344D-03
 Coeff-Com:  0.360D-03 0.814D-02 0.245D-01 0.136D+00 0.182D+00 0.650D+00
 Coeff:      0.802D-06-0.880D-05-0.362D-04-0.834D-04-0.220D-03-0.344D-03
 Coeff:      0.360D-03 0.814D-02 0.245D-01 0.136D+00 0.182D+00 0.650D+00
 Gap=     0.164 Goal=   None    Shift=    0.000
 RMSDP=1.18D-08 MaxDP=5.35D-07 DE=-2.36D-10 OVMax= 5.37D-07

 Cycle  13  Pass 1  IDiag  1:
 RMSU=  7.02D-09    CP:  1.00D+00  4.91D-01  7.95D-01  6.30D-01  6.27D-01
                    CP:  6.00D-01  5.34D-01  7.50D-01  7.28D-01  8.68D-01
                    CP:  6.21D-01  8.21D-01
 E= -419.968298119445     Delta-E=       -0.000000000002 Rises=F Damp=F
 DIIS: error= 6.22D-08 at cycle  13 NSaved=  13.
 NSaved=13 IEnMin=13 EnMin= -419.968298119445     IErMin=13 ErrMin= 6.22D-08
 ErrMax= 6.22D-08  0.00D+00 EMaxC= 1.00D-01 BMatC= 7.00D-13 BMatP= 4.56D-12
 IDIUse=1 WtCom= 1.00D+00 WtEn= 0.00D+00
 Coeff-Com:  0.327D-06-0.320D-05-0.133D-04-0.318D-04-0.905D-04-0.148D-03
 Coeff-Com:  0.436D-04 0.217D-02 0.736D-02 0.476D-01 0.723D-01 0.359D+00
 Coeff-Com:  0.511D+00
 Coeff:      0.327D-06-0.320D-05-0.133D-04-0.318D-04-0.905D-04-0.148D-03
 Coeff:      0.436D-04 0.217D-02 0.736D-02 0.476D-01 0.723D-01 0.359D+00
 Coeff:      0.511D+00
 Gap=     0.164 Goal=   None    Shift=    0.000
 RMSDP=3.26D-09 MaxDP=1.43D-07 DE=-2.05D-12 OVMax= 1.85D-07

 Error on total polarization charges =  0.00922
 SCF Done:  E(RB-P86) =  -419.968298119     A.U. after   13 cycles
            NFock= 13  Conv=0.33D-08     -V/T= 2.0035
 KE= 4.185212545883D+02 PE=-1.881735690084D+03 EE= 5.852586764605D+02
 Leave Link  502 at Tue Feb 23 00:13:00 2021, MaxMem=   104857600 cpu:             375.0 elap:              12.0
 (Enter /sw/arch/RedHatEnterpriseServer7/EB_production/2019/software/Gaussian/g16.c01/l601.exe)
 Copying SCF densities to generalized density rwf, IOpCl= 0 IROHF=0.

 **********************************************************************

            Population analysis using the SCF Density.

 **********************************************************************

 Orbital symmetries:
       Occupied  (A) (A) (A) (A) (A) (A) (A) (A) (A) (A) (A) (A)
                 (A) (A) (A) (A) (A) (A) (A) (A) (A) (A) (A) (A)
                 (A) (A) (A) (A) (A) (A) (A) (A) (A) (A)
       Virtual   (A) (A) (A) (A) (A) (A) (A) (A) (A) (A) (A) (A)
                 (A) (A) (A) (A) (A) (A) (A) (A) (A) (A) (A) (A)
                 (A) (A) (A) (A) (A) (A) (A) (A) (A) (A) (A) (A)
                 (A) (A) (A) (A) (A) (A) (A) (A) (A) (A) (A) (A)
                 (A) (A) (A) (A) (A) (A) (A) (A) (A) (A) (A) (A)
                 (A) (A) (A) (A) (A) (A) (A) (A) (A) (A) (A) (A)
                 (A) (A) (A) (A) (A) (A) (A) (A) (A) (A) (A) (A)
                 (A) (A) (A) (A) (A) (A) (A) (A) (A) (A) (A) (A)
                 (A) (A) (A) (A) (A) (A) (A) (A) (A) (A) (A) (A)
                 (A) (A) (A) (A) (A) (A) (A) (A) (A) (A) (A) (A)
                 (A) (A) (A) (A) (A) (A) (A) (A) (A) (A) (A) (A)
                 (A) (A) (A) (A) (A) (A) (A) (A) (A) (A) (A) (A)
                 (A) (A) (A) (A) (A) (A) (A) (A) (A) (A) (A) (A)
                 (A) (A) (A) (A) (A) (A) (A) (A) (A) (A) (A) (A)
                 (A) (A) (A) (A) (A) (A) (A) (A) (A) (A) (A) (A)
                 (A) (A) (A) (A) (A) (A) (A) (A) (A) (A) (A) (A)
                 (A) (A) (A) (A) (A) (A) (A) (A) (A) (A) (A)
 The electronic state is 1-A.
 Alpha  occ. eigenvalues --  -18.78695 -14.12418 -14.12371 -10.00773  -9.96989
 Alpha  occ. eigenvalues --   -9.96398  -9.96337  -9.96318  -9.95874  -1.02630
 Alpha  occ. eigenvalues --   -0.95711  -0.92359  -0.76896  -0.73456  -0.69303
 Alpha  occ. eigenvalues --   -0.62743  -0.60585  -0.58663  -0.53760  -0.49427
 Alpha  occ. eigenvalues --   -0.48017  -0.47017  -0.46190  -0.44880  -0.43950
 Alpha  occ. eigenvalues --   -0.43169  -0.41723  -0.38323  -0.38039  -0.35988
 Alpha  occ. eigenvalues --   -0.32679  -0.30054  -0.25852  -0.24577
 Alpha virt. eigenvalues --   -0.08189  -0.04475   0.00630   0.02382   0.02959
 Alpha virt. eigenvalues --    0.05016   0.05260   0.06269   0.07159   0.07446
 Alpha virt. eigenvalues --    0.08303   0.09335   0.09556   0.10434   0.10698
 Alpha virt. eigenvalues --    0.11614   0.12579   0.14729   0.15746   0.16498
 Alpha virt. eigenvalues --    0.16995   0.18342   0.19247   0.21301   0.22264
 Alpha virt. eigenvalues --    0.22878   0.23453   0.24851   0.25429   0.26296
 Alpha virt. eigenvalues --    0.28139   0.28869   0.30011   0.32108   0.33204
 Alpha virt. eigenvalues --    0.34105   0.34632   0.35891   0.36050   0.37936
 Alpha virt. eigenvalues --    0.38752   0.39263   0.39513   0.40017   0.41476
 Alpha virt. eigenvalues --    0.41780   0.42331   0.43168   0.44281   0.45181
 Alpha virt. eigenvalues --    0.46796   0.47765   0.49112   0.49906   0.51132
 Alpha virt. eigenvalues --    0.51919   0.54655   0.55797   0.57890   0.59268
 Alpha virt. eigenvalues --    0.60849   0.61982   0.64264   0.67090   0.67834
 Alpha virt. eigenvalues --    0.68992   0.71241   0.82759   0.85697   1.04542
 Alpha virt. eigenvalues --    1.11644   1.12744   1.15012   1.15081   1.15653
 Alpha virt. eigenvalues --    1.17253   1.18620   1.20292   1.20718   1.21327
 Alpha virt. eigenvalues --    1.23251   1.24907   1.25964   1.26282   1.27581
 Alpha virt. eigenvalues --    1.30201   1.30878   1.31833   1.32959   1.33735
 Alpha virt. eigenvalues --    1.35199   1.36882   1.37966   1.42086   1.42687
 Alpha virt. eigenvalues --    1.42999   1.43651   1.48181   1.49638   1.50893
 Alpha virt. eigenvalues --    1.52689   1.54477   1.56544   1.59039   1.59665
 Alpha virt. eigenvalues --    1.63154   1.64306   1.66106   1.66638   1.67242
 Alpha virt. eigenvalues --    1.67577   1.68901   1.69589   1.71111   1.72406
 Alpha virt. eigenvalues --    1.73459   1.75222   1.76594   1.80225   1.80951
 Alpha virt. eigenvalues --    1.81941   1.87287   1.88831   1.89025   1.90905
 Alpha virt. eigenvalues --    1.95400   1.96409   1.96995   2.01661   2.04987
 Alpha virt. eigenvalues --    2.07240   2.08814   2.14408   2.17706   2.19015
 Alpha virt. eigenvalues --    2.19614   2.21801   2.23955   2.25430   2.26467
 Alpha virt. eigenvalues --    2.28353   2.34261   2.35057   2.35181   2.38223
 Alpha virt. eigenvalues --    2.40297   2.41467   2.41980   2.42524   2.42877
 Alpha virt. eigenvalues --    2.46778   2.47105   2.49406   2.50230   2.51617
 Alpha virt. eigenvalues --    2.52118   2.54041   2.55229   2.59132   2.60062
 Alpha virt. eigenvalues --    2.61603   2.63380   2.67442   2.72220   2.74794
 Alpha virt. eigenvalues --    2.75567   2.77564   2.80161   2.82731   2.83709
 Alpha virt. eigenvalues --    2.84878   2.88647   2.93797   2.97869   2.98499
 Alpha virt. eigenvalues --    3.00620   3.07577   3.12469   3.14502   3.16441
 Alpha virt. eigenvalues --    3.22506   3.24739   3.24815   3.28268   3.28621
 Alpha virt. eigenvalues --    3.30621   3.46536   3.49412   3.50671   3.66643
 Alpha virt. eigenvalues --    3.67584   3.74777   3.86268   4.15080  21.58367
 Alpha virt. eigenvalues --   21.64458  21.74236  21.79655  21.89941  21.95906
 Alpha virt. eigenvalues --   31.45188  31.59535  43.09814
          Condensed to atoms (all electrons):
               1          2          3          4          5          6
     1  C    4.932988   0.267403  -0.060088   0.013591   0.006205  -0.001049
     2  N    0.267403   6.127357   0.428395  -0.083266  -0.077414  -0.003031
     3  C   -0.060088   0.428395   5.079913   0.434796  -0.072461  -0.001846
     4  C    0.013591  -0.083266   0.434796   5.062080   0.416294  -0.055079
     5  N    0.006205  -0.077414  -0.072461   0.416294   6.213084   0.149210
     6  C   -0.001049  -0.003031  -0.001846  -0.055079   0.149210   5.528986
     7  C    0.000354   0.002155   0.007635  -0.008131  -0.014342   0.052453
     8  O    0.000000   0.000007   0.000005   0.000439   0.007358  -0.123259
     9  C   -0.061851   0.461516  -0.123188  -0.132034   0.457358  -0.056376
    10  H    0.388187  -0.018801   0.010608  -0.001553   0.000873   0.000071
    11  H    0.395549  -0.021465  -0.012949   0.002732  -0.000593   0.000036
    12  H    0.411351  -0.038386  -0.001243  -0.000978  -0.000008  -0.000061
    13  H   -0.008979  -0.024684   0.410436  -0.032766   0.003250  -0.000189
    14  H   -0.000254   0.003612  -0.049059   0.425876  -0.030142   0.002251
    15  H    0.000122   0.001852  -0.003656   0.015297  -0.012885   0.353434
    16  H   -0.000015  -0.001098   0.005567  -0.015507  -0.015917   0.362765
    17  H   -0.000082  -0.001251   0.002553  -0.005407   0.003841  -0.039411
    18  H    0.000025   0.000620  -0.003597   0.011127   0.004985  -0.043279
    19  H   -0.000000  -0.000002  -0.000005  -0.000110  -0.000927   0.018234
    20  H   -0.004440  -0.026228   0.005602   0.008313  -0.027789   0.005317
               7          8          9         10         11         12
     1  C    0.000354   0.000000  -0.061851   0.388187   0.395549   0.411351
     2  N    0.002155   0.000007   0.461516  -0.018801  -0.021465  -0.038386
     3  C    0.007635   0.000005  -0.123188   0.010608  -0.012949  -0.001243
     4  C   -0.008131   0.000439  -0.132034  -0.001553   0.002732  -0.000978
     5  N   -0.014342   0.007358   0.457358   0.000873  -0.000593  -0.000008
     6  C    0.052453  -0.123259  -0.056376   0.000071   0.000036  -0.000061
     7  C    5.097842   0.334864  -0.001989   0.000009  -0.000005  -0.000006
     8  O    0.334864   7.935638   0.000475  -0.000000  -0.000000   0.000000
     9  C   -0.001989   0.000475   5.013785  -0.009343   0.009003  -0.005367
    10  H    0.000009  -0.000000  -0.009343   0.494033  -0.022018  -0.022759
    11  H   -0.000005  -0.000000   0.009003  -0.022018   0.489982  -0.023242
    12  H   -0.000006   0.000000  -0.005367  -0.022759  -0.023242   0.483157
    13  H    0.000015  -0.000000   0.012221   0.000188  -0.000588   0.000431
    14  H   -0.004523  -0.000128   0.011293   0.000003   0.000026  -0.000004
    15  H   -0.028384   0.015809  -0.009094  -0.000029  -0.000002   0.000005
    16  H   -0.023935   0.015368   0.010030   0.000001   0.000001   0.000000
    17  H    0.407094  -0.055308   0.007401   0.000008   0.000000   0.000011
    18  H    0.403318  -0.055030  -0.002127  -0.000002  -0.000000   0.000001
    19  H   -0.042580   0.306621  -0.000123   0.000000  -0.000000  -0.000000
    20  H   -0.003718  -0.000069   0.414490   0.000223  -0.000030   0.000256
              13         14         15         16         17         18
     1  C   -0.008979  -0.000254   0.000122  -0.000015  -0.000082   0.000025
     2  N   -0.024684   0.003612   0.001852  -0.001098  -0.001251   0.000620
     3  C    0.410436  -0.049059  -0.003656   0.005567   0.002553  -0.003597
     4  C   -0.032766   0.425876   0.015297  -0.015507  -0.005407   0.011127
     5  N    0.003250  -0.030142  -0.012885  -0.015917   0.003841   0.004985
     6  C   -0.000189   0.002251   0.353434   0.362765  -0.039411  -0.043279
     7  C    0.000015  -0.004523  -0.028384  -0.023935   0.407094   0.403318
     8  O   -0.000000  -0.000128   0.015809   0.015368  -0.055308  -0.055030
     9  C    0.012221   0.011293  -0.009094   0.010030   0.007401  -0.002127
    10  H    0.000188   0.000003  -0.000029   0.000001   0.000008  -0.000002
    11  H   -0.000588   0.000026  -0.000002   0.000001   0.000000  -0.000000
    12  H    0.000431  -0.000004   0.000005   0.000000   0.000011   0.000001
    13  H    0.443590   0.001258  -0.000013   0.000056   0.000018  -0.000031
    14  H    0.001258   0.457172   0.000716  -0.002661  -0.000333   0.001814
    15  H   -0.000013   0.000716   0.528917  -0.038032  -0.018079   0.012411
    16  H    0.000056  -0.002661  -0.038032   0.523710   0.011939  -0.017477
    17  H    0.000018  -0.000333  -0.018079   0.011939   0.606719  -0.063807
    18  H   -0.000031   0.001814   0.012411  -0.017477  -0.063807   0.607529
    19  H    0.000000  -0.000001  -0.000781  -0.000738  -0.003568  -0.003965
    20  H   -0.000014   0.000044  -0.000910   0.000177   0.000676  -0.000111
              19         20
     1  C   -0.000000  -0.004440
     2  N   -0.000002  -0.026228
     3  C   -0.000005   0.005602
     4  C   -0.000110   0.008313
     5  N   -0.000927  -0.027789
     6  C    0.018234   0.005317
     7  C   -0.042580  -0.003718
     8  O    0.306621  -0.000069
     9  C   -0.000123   0.414490
    10  H    0.000000   0.000223
    11  H   -0.000000  -0.000030
    12  H   -0.000000   0.000256
    13  H    0.000000  -0.000014
    14  H   -0.000001   0.000044
    15  H   -0.000781  -0.000910
    16  H   -0.000738   0.000177
    17  H   -0.003568   0.000676
    18  H   -0.003965  -0.000111
    19  H    0.421651   0.000003
    20  H    0.000003   0.432102
 Mulliken charges:
               1
     1  C   -0.279019
     2  N    0.002708
     3  C   -0.057420
     4  C   -0.055713
     5  N   -0.009982
     6  C   -0.149176
     7  C   -0.178125
     8  O   -0.382792
     9  C    0.003922
    10  H    0.180300
    11  H    0.183564
    12  H    0.196843
    13  H    0.195801
    14  H    0.183041
    15  H    0.183302
    16  H    0.185765
    17  H    0.146986
    18  H    0.147596
    19  H    0.306292
    20  H    0.196106
 Sum of Mulliken charges =   1.00000
 Mulliken charges with hydrogens summed into heavy atoms:
               1
     1  C    0.281688
     2  N    0.002708
     3  C    0.138381
     4  C    0.127328
     5  N   -0.009982
     6  C    0.219891
     7  C    0.116458
     8  O   -0.076499
     9  C    0.200028
 Electronic spatial extent (au):  <R**2>=           1573.1623
 Charge=              1.0000 electrons
 Dipole moment (field-independent basis, Debye):
    X=             -5.0434    Y=             -0.6568    Z=             -1.3157  Tot=              5.2534
 Quadrupole moment (field-independent basis, Debye-Ang):
   XX=            -29.7549   YY=            -41.6883   ZZ=            -49.2262
   XY=              2.1003   XZ=             -4.6885   YZ=             -0.4168
 Traceless Quadrupole moment (field-independent basis, Debye-Ang):
   XX=             10.4682   YY=             -1.4652   ZZ=             -9.0031
   XY=              2.1003   XZ=             -4.6885   YZ=             -0.4168
 Octapole moment (field-independent basis, Debye-Ang**2):
  XXX=            -56.0014  YYY=              2.8888  ZZZ=             -2.3530  XYY=             -8.5042
  XXY=            -14.0701  XXZ=            -37.9354  XZZ=             13.0324  YZZ=             -4.7128
  YYZ=             -1.0939  XYZ=              7.6911
 Hexadecapole moment (field-independent basis, Debye-Ang**3):
 XXXX=          -1312.7655 YYYY=           -229.8443 ZZZZ=           -122.3738 XXXY=             -4.3434
 XXXZ=           -122.1812 YYYX=              3.3764 YYYZ=             -8.2857 ZZZX=             -8.0679
 ZZZY=              2.5519 XXYY=           -271.1399 XXZZ=           -239.5684 YYZZ=            -62.4525
 XXYZ=             18.1100 YYXZ=              0.4294 ZZXY=             -0.9795
 N-N= 4.579874609158D+02 E-N=-1.881735682268D+03  KE= 4.185212545883D+02
 No NMR shielding tensors so no spin-rotation constants.
 Leave Link  601 at Tue Feb 23 00:13:01 2021, MaxMem=   104857600 cpu:               9.4 elap:               0.4
 (Enter /sw/arch/RedHatEnterpriseServer7/EB_production/2019/software/Gaussian/g16.c01/l701.exe)
 ... and contract with generalized density number  0.
 Compute integral first derivatives.
 R6Disp: Adding Grimme-D3 dispersion energy 1st derivatives to the gradient.
 PrsmSu:  requested number of processors reduced to:  29 ShMem   1 Linda.
 D1PCM: PCM CHGder 1st derivatives, ID1Alg=3 FixD1E=F DoIter=F DoCFld=F I1PDM=0.
 GePol: Maximum number of non-zero 1st derivatives   =     222
 CoulSu:  requested number of processors reduced to:  29 ShMem   1 Linda.
 CoulSu:  requested number of processors reduced to:  30 ShMem   1 Linda.
 Leave Link  701 at Tue Feb 23 00:13:01 2021, MaxMem=   104857600 cpu:              19.8 elap:               0.7
 (Enter /sw/arch/RedHatEnterpriseServer7/EB_production/2019/software/Gaussian/g16.c01/l702.exe)
 L702 exits ... SP integral derivatives will be done elsewhere.
 Leave Link  702 at Tue Feb 23 00:13:02 2021, MaxMem=   104857600 cpu:               0.7 elap:               0.1
 (Enter /sw/arch/RedHatEnterpriseServer7/EB_production/2019/software/Gaussian/g16.c01/l703.exe)
 Integral derivatives from FoFJK, PRISM(SPDF).
 Compute integral first derivatives, UseDBF=F ICtDFT=           0.
 Calling FoFJK, ICntrl=      2527 FMM=F ISym2X=0 I1Cent= 0 IOpClX= 0 NMat=1 NMatS=1 NMatT=0.
 FoFJK:  IHMeth= 1 ICntrl=    2527 DoSepK=F KAlg= 0 I1Cent=           0 FoldK=F
 IRaf=         0 NMat=       1 IRICut=       1 DoRegI=T DoRafI=F ISym2E= 0 IDoP0=0 IntGTp=1.
 FoFCou: FMM=F IPFlag=           0 FMFlag=      100000 FMFlg1=         800
         NFxFlg=           0 DoJE=F BraDBF=F KetDBF=F FulRan=T
         wScrn=  0.000000 ICntrl=      2527 IOpCl=  0 I1Cent=           0 NGrid=           0
         NMat0=    1 NMatS0=      1 NMatT0=    0 NMatD0=    1 NMtDS0=    0 NMtDT0=    0
 Symmetry not used in FoFCou.
 Leave Link  703 at Tue Feb 23 00:13:03 2021, MaxMem=   104857600 cpu:              52.1 elap:               1.7
 (Enter /sw/arch/RedHatEnterpriseServer7/EB_production/2019/software/Gaussian/g16.c01/l716.exe)
 Dipole        =-1.98421716D+00-2.58418370D-01-5.17643876D-01
 ***** Axes restored to original set *****
 -------------------------------------------------------------------
 Center     Atomic                   Forces (Hartrees/Bohr)
 Number     Number              X              Y              Z
 -------------------------------------------------------------------
      1        6          -0.001906387   -0.018856195    0.016163438
      2        7           0.020284470    0.018123970   -0.003962620
      3        6           0.029032281    0.037207726   -0.023731646
      4        6          -0.023903121   -0.038809735    0.026597902
      5        7          -0.002074637   -0.013412577    0.018541431
      6        6           0.027349832    0.011217275   -0.011749049
      7        6          -0.001244562   -0.001135794   -0.000266637
      8        8           0.006088515    0.004709616   -0.002627406
      9        6          -0.020613321    0.003518943   -0.013442502
     10        1           0.002133439    0.001976021    0.000934674
     11        1          -0.002540310    0.002768023   -0.001944568
     12        1           0.000721257   -0.004622477   -0.001634567
     13        1          -0.046577787   -0.019911446   -0.004229997
     14        1          -0.011025375    0.030156156   -0.038490873
     15        1          -0.000440961   -0.000940899    0.002873830
     16        1          -0.004161704   -0.000085426   -0.000006628
     17        1          -0.002793059   -0.007836706    0.005199291
     18        1          -0.008460757   -0.004343941   -0.002154115
     19        1           0.000251544    0.007140718    0.003262498
     20        1           0.039880640   -0.006863254    0.030667544
 -------------------------------------------------------------------
 Cartesian Forces:  Max     0.046577787 RMS     0.016923554
 Leave Link  716 at Tue Feb 23 00:13:04 2021, MaxMem=   104857600 cpu:               0.7 elap:               0.1
 (Enter /sw/arch/RedHatEnterpriseServer7/EB_production/2019/software/Gaussian/g16.c01/l103.exe)

 GradGradGradGradGradGradGradGradGradGradGradGradGradGradGradGradGradGrad
 Berny optimization.
 FormGI is forming the generalized inverse of G from B-inverse, IUseBI=4.
 Internal  Forces:  Max     0.050753383 RMS     0.011389280
 Search for a local minimum.
 Step number   1 out of a maximum of  108
 All quantities printed in internal units (Hartrees-Bohrs-Radians)
 RMS Force = .11389D-01 SwitMx=.10000D-02 MixMth= 1
 Mixed Optimization -- RFO/linear search
 Second derivative matrix not updated -- first step.
 ITU=  0
     Eigenvalues ---    0.00230   0.01264   0.01309   0.01395   0.01835
     Eigenvalues ---    0.01911   0.02311   0.02344   0.02360   0.02380
     Eigenvalues ---    0.02395   0.04439   0.05058   0.05545   0.05700
     Eigenvalues ---    0.07591   0.07724   0.09213   0.11420   0.12689
     Eigenvalues ---    0.13771   0.15998   0.15999   0.16000   0.16000
     Eigenvalues ---    0.16000   0.16000   0.16000   0.21924   0.22054
     Eigenvalues ---    0.22831   0.23556   0.24984   0.24994   0.28232
     Eigenvalues ---    0.34239   0.34250   0.34362   0.34364   0.34514
     Eigenvalues ---    0.34574   0.34687   0.40652   0.41138   0.42098
     Eigenvalues ---    0.43387   0.43853   0.43957   0.44004   0.48470
     Eigenvalues ---    0.51368   0.52255   0.55599   0.55943
 RFO step:  Lambda=-3.01880179D-02 EMin= 2.30000000D-03
 Linear search not attempted -- first point.
 Iteration  1 RMS(Cart)=  0.04317079 RMS(Int)=  0.00124175
 Iteration  2 RMS(Cart)=  0.00154200 RMS(Int)=  0.00035193
 Iteration  3 RMS(Cart)=  0.00000119 RMS(Int)=  0.00035192
 Iteration  4 RMS(Cart)=  0.00000000 RMS(Int)=  0.00035192
 ITry= 1 IFail=0 DXMaxC= 2.07D-01 DCOld= 1.00D+10 DXMaxT= 3.00D-01 DXLimC= 3.00D+00 Rises=F
 Variable       Old X    -DE/DX   Delta X   Delta X   Delta X     New X
                                 (Linear)    (Quad)   (Total)
    R1        2.70036   0.02276   0.00000   0.05153   0.05153   2.75189
    R2        2.06471   0.00211   0.00000   0.00563   0.00563   2.07033
    R3        2.06372   0.00205   0.00000   0.00544   0.00544   2.06916
    R4        2.06185   0.00492   0.00000   0.01304   0.01304   2.07490
    R5        2.54281   0.03267   0.00000   0.05537   0.05539   2.59820
    R6        2.54665   0.00042   0.00000   0.00032   0.00028   2.54692
    R7        2.62383  -0.01328   0.00000  -0.02578  -0.02572   2.59811
    R8        1.93206   0.05025   0.00000   0.10697   0.10697   2.03903
    R9        2.54229   0.03323   0.00000   0.05652   0.05654   2.59882
   R10        1.93331   0.04958   0.00000   0.10579   0.10579   2.03910
   R11        2.70677   0.01914   0.00000   0.04383   0.04383   2.75060
   R12        2.54801   0.00192   0.00000   0.00304   0.00299   2.55100
   R13        2.91634  -0.00533   0.00000  -0.01704  -0.01704   2.89930
   R14        2.06928   0.00180   0.00000   0.00482   0.00482   2.07411
   R15        2.06911   0.00152   0.00000   0.00408   0.00408   2.07318
   R16        2.68798   0.01187   0.00000   0.02632   0.02632   2.71430
   R17        2.06724   0.00731   0.00000   0.01955   0.01955   2.08679
   R18        2.06721   0.00734   0.00000   0.01963   0.01963   2.08684
   R19        1.85209  -0.00579   0.00000  -0.01064  -0.01064   1.84145
   R20        1.93150   0.05075   0.00000   0.10793   0.10793   2.03943
    A1        1.93383  -0.00234   0.00000  -0.01225  -0.01237   1.92145
    A2        1.93680  -0.00531   0.00000  -0.02960  -0.02970   1.90710
    A3        1.91116   0.00230   0.00000   0.01370   0.01375   1.92490
    A4        1.88685   0.00309   0.00000   0.01323   0.01294   1.89980
    A5        1.89562   0.00100   0.00000   0.00851   0.00854   1.90416
    A6        1.89870   0.00144   0.00000   0.00740   0.00747   1.90617
    A7        2.21219  -0.00444   0.00000  -0.01639  -0.01637   2.19582
    A8        2.20243  -0.00723   0.00000  -0.02635  -0.02632   2.17611
    A9        1.86842   0.01168   0.00000   0.04276   0.04271   1.91113
   A10        1.88279  -0.00483   0.00000  -0.01644  -0.01639   1.86640
   A11        2.20998  -0.00495   0.00000  -0.03048  -0.03050   2.17948
   A12        2.19040   0.00977   0.00000   0.04691   0.04688   2.23728
   A13        1.88018  -0.00501   0.00000  -0.01661  -0.01657   1.86360
   A14        2.19469   0.00960   0.00000   0.04562   0.04559   2.24028
   A15        2.20826  -0.00458   0.00000  -0.02896  -0.02898   2.17928
   A16        2.20970  -0.00352   0.00000  -0.01352  -0.01350   2.19620
   A17        1.86994   0.01112   0.00000   0.04155   0.04149   1.91143
   A18        2.20320  -0.00760   0.00000  -0.02809  -0.02807   2.17514
   A19        1.92940   0.00145   0.00000   0.00393   0.00398   1.93338
   A20        1.92097  -0.00158   0.00000  -0.01107  -0.01113   1.90984
   A21        1.92442  -0.00301   0.00000  -0.02482  -0.02485   1.89957
   A22        1.90589   0.00094   0.00000   0.01205   0.01202   1.91791
   A23        1.90935   0.00130   0.00000   0.01053   0.01048   1.91983
   A24        1.87284   0.00092   0.00000   0.00995   0.00964   1.88248
   A25        1.91991  -0.01511   0.00000  -0.05886  -0.05871   1.86120
   A26        1.92240  -0.00100   0.00000  -0.01944  -0.01903   1.90337
   A27        1.92148  -0.00073   0.00000  -0.01780  -0.01740   1.90408
   A28        1.89797   0.00915   0.00000   0.05134   0.05025   1.94821
   A29        1.89847   0.00897   0.00000   0.05034   0.04928   1.94775
   A30        1.90320  -0.00092   0.00000  -0.00344  -0.00498   1.89822
   A31        1.81897   0.00989   0.00000   0.05198   0.05198   1.87095
   A32        1.92337  -0.01295   0.00000  -0.05104  -0.05115   1.87222
   A33        2.18150   0.00638   0.00000   0.02497   0.02502   2.20653
   A34        2.17826   0.00657   0.00000   0.02602   0.02608   2.20434
    D1       -2.63344   0.00068   0.00000   0.00396   0.00387  -2.62958
    D2        0.52906   0.00055   0.00000   0.00232   0.00216   0.53122
    D3       -0.53712  -0.00049   0.00000  -0.00709  -0.00691  -0.54403
    D4        2.62538  -0.00063   0.00000  -0.00873  -0.00862   2.61676
    D5        1.55916  -0.00057   0.00000  -0.00770  -0.00769   1.55146
    D6       -1.56153  -0.00070   0.00000  -0.00935  -0.00940  -1.57093
    D7       -3.13440   0.00063   0.00000   0.01142   0.01159  -3.12281
    D8        0.00190   0.00052   0.00000   0.00929   0.00949   0.01139
    D9       -0.01046   0.00059   0.00000   0.01224   0.01249   0.00203
   D10        3.12584   0.00048   0.00000   0.01010   0.01039   3.13623
   D11        3.13739  -0.00081   0.00000  -0.01421  -0.01402   3.12337
   D12        0.00608  -0.00057   0.00000  -0.00977  -0.00970  -0.00363
   D13        0.01332  -0.00081   0.00000  -0.01515  -0.01502  -0.00170
   D14       -3.11799  -0.00056   0.00000  -0.01070  -0.01071  -3.12870
   D15        0.00403  -0.00034   0.00000  -0.00572  -0.00557  -0.00154
   D16        3.13503  -0.00014   0.00000  -0.00122  -0.00112   3.13392
   D17       -3.13235  -0.00018   0.00000  -0.00332  -0.00307  -3.13542
   D18       -0.00135   0.00002   0.00000   0.00118   0.00139   0.00004
   D19        3.11857  -0.00040   0.00000  -0.00637  -0.00654   3.11204
   D20        0.00404  -0.00015   0.00000  -0.00341  -0.00351   0.00054
   D21       -0.01233  -0.00072   0.00000  -0.01149  -0.01137  -0.02369
   D22       -3.12686  -0.00047   0.00000  -0.00854  -0.00834  -3.13519
   D23       -1.55729   0.00034   0.00000   0.00871   0.00868  -1.54861
   D24        2.61901  -0.00075   0.00000  -0.00166  -0.00159   2.61742
   D25        0.55620   0.00093   0.00000   0.00811   0.00804   0.56424
   D26        1.55224   0.00032   0.00000   0.00628   0.00628   1.55852
   D27       -0.55465  -0.00077   0.00000  -0.00409  -0.00400  -0.55865
   D28       -2.61746   0.00092   0.00000   0.00568   0.00563  -2.61183
   D29       -0.01081   0.00061   0.00000   0.01165   0.01152   0.00071
   D30        3.12052   0.00036   0.00000   0.00721   0.00721   3.12774
   D31       -3.12547   0.00078   0.00000   0.01431   0.01424  -3.11123
   D32        0.00587   0.00053   0.00000   0.00987   0.00993   0.01579
   D33        3.14082  -0.00055   0.00000  -0.00689  -0.00692   3.13390
   D34       -1.05048   0.00059   0.00000   0.00721   0.00735  -1.04313
   D35        1.04889  -0.00166   0.00000  -0.02083  -0.02098   1.02791
   D36       -1.02652  -0.00098   0.00000  -0.01031  -0.01037  -1.03689
   D37        1.06537   0.00017   0.00000   0.00379   0.00390   1.06927
   D38       -3.11844  -0.00209   0.00000  -0.02425  -0.02443   3.14031
   D39        1.01841   0.00141   0.00000   0.01462   0.01466   1.03307
   D40        3.11030   0.00256   0.00000   0.02872   0.02893   3.13923
   D41       -1.07351   0.00031   0.00000   0.00068   0.00060  -1.07291
   D42       -3.13866  -0.00003   0.00000   0.00054   0.00052  -3.13814
   D43        1.03786   0.00471   0.00000   0.02826   0.03001   1.06786
   D44       -1.03282  -0.00455   0.00000  -0.02582  -0.02755  -1.06037
         Item               Value     Threshold  Converged?
 Maximum Force            0.050753     0.000450     NO 
 RMS     Force            0.011389     0.000300     NO 
 Maximum Displacement     0.207020     0.001800     NO 
 RMS     Displacement     0.043174     0.001200     NO 
 Predicted change in Energy=-1.638880D-02
 Lowest energy point so far.  Saving SCF results.
 GradGradGradGradGradGradGradGradGradGradGradGradGradGradGradGradGradGrad

 Leave Link  103 at Tue Feb 23 00:13:04 2021, MaxMem=   104857600 cpu:               1.6 elap:               0.1
 (Enter /sw/arch/RedHatEnterpriseServer7/EB_production/2019/software/Gaussian/g16.c01/l202.exe)
                          Input orientation:                          
 ---------------------------------------------------------------------
 Center     Atomic      Atomic             Coordinates (Angstroms)
 Number     Number       Type             X           Y           Z
 ---------------------------------------------------------------------
      1          6           0       -2.881882   -3.040267    4.069243
      2          7           0       -2.570456   -1.982463    3.118089
      3          6           0       -3.408947   -1.511747    2.135372
      4          6           0       -2.718801   -0.538359    1.452399
      5          7           0       -1.479577   -0.443263    2.041092
      6          6           0       -0.401454    0.439168    1.619664
      7          6           0        0.477752   -0.242090    0.562885
      8          8           0        1.498289    0.703311    0.205377
      9          6           0       -1.394395   -1.326895    3.058071
     10          1           0       -2.333166   -2.879590    5.003788
     11          1           0       -3.955690   -3.029269    4.283103
     12          1           0       -2.606055   -4.018702    3.654319
     13          1           0       -4.411795   -1.867887    1.957259
     14          1           0       -3.049105    0.051632    0.611478
     15          1           0        0.207015    0.713933    2.490831
     16          1           0       -0.836436    1.359024    1.209488
     17          1           0        0.909021   -1.163534    0.992285
     18          1           0       -0.147016   -0.513879   -0.306188
     19          1           0        2.060203    0.279590   -0.468620
     20          1           0       -0.537825   -1.487853    3.694544
 ---------------------------------------------------------------------
                    Distance matrix (angstroms):
                    1          2          3          4          5
     1  C    0.000000
     2  N    1.456238   0.000000
     3  C    2.520719   1.374908   0.000000
     4  C    3.624087   2.209517   1.374859   0.000000
     5  N    3.581100   2.172343   2.207491   1.375238   0.000000
     6  C    4.925386   3.579685   3.621745   2.520641   1.455553
     7  C    5.604595   4.341606   4.380774   3.331211   2.461037
     8  O    6.937559   5.679080   5.719469   4.569536   3.681326
     9  C    2.484095   1.347773   2.223503   2.225764   1.349929
    10  H    1.095573   2.101667   3.355013   4.271117   3.929614
    11  H    1.094953   2.090917   2.685991   3.968300   4.224355
    12  H    1.097988   2.105962   3.039187   4.119945   4.081080
    13  H    2.859298   2.179720   1.079010   2.211053   3.261055
    14  H    4.641544   3.263394   2.212666   1.079045   2.179939
    15  H    5.111427   3.921524   4.260890   3.347682   2.094268
    16  H    5.631679   4.220796   3.964392   2.683723   2.086489
    17  H    5.230749   4.158900   4.480262   3.709938   2.706323
    18  H    5.745131   4.444713   4.194896   3.115656   2.700080
    19  H    7.485843   6.278883   6.316745   5.215193   4.399001
    20  H    2.836369   2.169914   3.267251   3.268854   2.170707
                    6          7          8          9         10
     6  C    0.000000
     7  C    1.534242   0.000000
     8  O    2.383066   1.436346   0.000000
     9  C    2.484738   3.302679   4.541719   0.000000
    10  H    5.118394   5.880416   7.109288   2.660445   0.000000
    11  H    5.635295   6.423690   7.765686   3.310440   1.781678
    12  H    5.373331   5.773182   7.144105   3.011554   1.786927
    13  H    4.638890   5.338086   6.679014   3.257171   3.824341
    14  H    2.859489   3.539400   4.611767   3.259481   5.328885
    15  H    1.097571   2.168929   2.625033   2.655419   5.067631
    16  H    1.097082   2.169966   2.624717   3.307981   5.882411
    17  H    2.163239   1.104282   2.109874   3.098368   5.435879
    18  H    2.163780   1.104306   2.109568   3.679021   6.210611
    19  H    3.232051   1.959669   0.974453   5.191588   7.696061
    20  H    2.834984   3.520031   4.595786   1.079220   2.621888
                   11         12         13         14         15
    11  H    0.000000
    12  H    1.787697   0.000000
    13  H    2.639392   3.281267   0.000000
    14  H    4.877978   5.101253   2.711567   0.000000
    15  H    5.878087   5.627157   5.318260   3.817450   0.000000
    16  H    6.199514   6.166740   4.873941   2.638711   1.773915
    17  H    6.162456   5.253015   5.453290   4.157933   2.502665
    18  H    6.472618   5.832348   5.014466   3.095810   3.075090
    19  H    8.349754   7.566235   7.237631   5.227199   3.518708
    20  H    3.795282   3.268698   4.262655   4.264016   2.617552
                   16         17         18         19         20
    16  H    0.000000
    17  H    3.075240   0.000000
    18  H    2.506061   1.795355   0.000000
    19  H    3.517349   2.354161   2.351126   0.000000
    20  H    3.790697   3.082329   4.136088   5.215893   0.000000
 Stoichiometry    C6H11N2O(1+)
 Framework group  C1[X(C6H11N2O)]
 Deg. of freedom    54
 Full point group                 C1      NOp   1
 RotChk:  IX=0 Diff= 2.53D-02
 Largest Abelian subgroup         C1      NOp   1
 Largest concise Abelian subgroup C1      NOp   1
                         Standard orientation:                         
 ---------------------------------------------------------------------
 Center     Atomic      Atomic             Coordinates (Angstroms)
 Number     Number       Type             X           Y           Z
 ---------------------------------------------------------------------
      1          6           0       -3.209457   -0.951543   -0.215763
      2          7           0       -1.972689   -0.203632   -0.037818
      3          6           0       -1.811036    1.145455   -0.248067
      4          6           0       -0.492292    1.435899    0.010376
      5          7           0        0.110771    0.254268    0.372787
      6          6           0        1.518106    0.081708    0.701823
      7          6           0        2.337587   -0.227168   -0.557918
      8          8           0        3.703138   -0.369005   -0.135732
      9          6           0       -0.797791   -0.743676    0.342259
     10          1           0       -3.232843   -1.808074    0.466944
     11          1           0       -4.060958   -0.299613    0.005267
     12          1           0       -3.290164   -1.313512   -1.249224
     13          1           0       -2.592883    1.818703   -0.563844
     14          1           0        0.008335    2.389635   -0.053653
     15          1           0        1.625955   -0.735096    1.426986
     16          1           0        1.886973    1.001074    1.173301
     17          1           0        1.955379   -1.155416   -1.018038
     18          1           0        2.218811    0.601330   -1.278317
     19          1           0        4.231972   -0.562438   -0.931015
     20          1           0       -0.612961   -1.783058    0.566401
 ---------------------------------------------------------------------
 Rotational constants (GHZ):           4.7093764           0.7857980           0.7195214
 Leave Link  202 at Tue Feb 23 00:13:04 2021, MaxMem=   104857600 cpu:               0.7 elap:               0.0
 (Enter /sw/arch/RedHatEnterpriseServer7/EB_production/2019/software/Gaussian/g16.c01/l301.exe)
 Standard basis: TZVP (5D, 7F)
 Ernie: Thresh=  0.10000D-02 Tol=  0.10000D-05 Strict=F.
 There are   246 symmetry adapted cartesian basis functions of A   symmetry.
 There are   237 symmetry adapted basis functions of A   symmetry.
   237 basis functions,   403 primitive gaussians,   246 cartesian basis functions
    34 alpha electrons       34 beta electrons
       nuclear repulsion energy       455.0580126144 Hartrees.
 IExCor=  404 DFT=T Ex=B Corr=P86 ExCW=0 ScaHFX=  0.000000
 ScaDFX=  1.000000  1.000000  1.000000  1.000000 ScalE2=  1.000000  1.000000
 IRadAn=      5 IRanWt=     -1 IRanGd=            0 ICorTp=0 IEmpDi=131
 NAtoms=   20 NActive=   20 NUniq=   20 SFac= 1.00D+00 NAtFMM=   60 NAOKFM=F Big=F
 Integral buffers will be    131072 words long.
 Raffenetti 2 integral format.
 Two-electron integral symmetry is turned on.
 R6Disp:  Grimme-D3 Dispersion energy=       -0.0158689297 Hartrees.
 Nuclear repulsion after empirical dispersion term =      455.0421436847 Hartrees.
 ------------------------------------------------------------------------------
 Polarizable Continuum Model (PCM)
 =================================
 Model                : PCM.
 Atomic radii         : UFF (Universal Force Field).
 Polarization charges : Total charges.
 Charge compensation  : None.
 Solution method      : On-the-fly selection.
[...]
    7   C      7    2.0000  1.000      2.352713     -0.183799     -0.573921
    8   O      8    1.7200  1.000      3.707224     -0.358298     -0.142588
    9   C      9    2.0000  1.000     -0.818703     -0.755043      0.323320
   10   H     10    1.3000  1.000     -3.097921     -1.973450     -0.025731
   11   H     11    1.3000  1.000     -3.996626     -0.501262      0.460136
   12   H     12    1.3000  1.000     -3.592707     -0.781374     -1.268504
   13   H     13    1.3000  1.000     -2.597548      1.819376     -0.531452
   14   H     14    1.3000  1.000      0.086839      2.348825      0.033009
   15   H     15    1.3000  1.000      1.618690     -0.872964      1.352721
   16   H     16    1.3000  1.000      1.887748      0.885491      1.261275
   17   H     17    1.3000  1.000      1.978222     -1.068065     -1.121453
   18   H     18    1.3000  1.000      2.239998      0.702870     -1.224112
   19   H     19    1.3000  1.000      4.259777     -0.474141     -0.935658
   20   H     20    1.3000  1.000     -0.655833     -1.804903      0.538114
 ------------------------------------------------------------------------------
 One-electron integrals computed using PRISM.
 PrsmSu:  requested number of processors reduced to:  29 ShMem   1 Linda.
 NBasis=   237 RedAO= T EigKep=  1.46D-04  NBF=   237
 NBsUse=   237 1.00D-06 EigRej= -1.00D+00 NBFU=   237
 Initial guess from the checkpoint file:  "ZGZLRWJZGFRHHQ-UHFFFAOYSA-N.chk"
 B after Tr=     0.000000    0.000000    0.000000
         Rot=    1.000000   -0.000000    0.000000    0.000000 Ang=   0.00 deg.
 Requested convergence on RMS density matrix=1.00D-08 within 128 cycles.
 Requested convergence on MAX density matrix=1.00D-06.
 Requested convergence on             energy=1.00D-06.
 No special actions if energy rises.
 Inv3:  Mode=1 IEnd=     5211372.
 Iteration    1 A*A^-1 deviation from unit magnitude is 1.63D-14 for   1050.
 Iteration    1 A*A^-1 deviation from orthogonality  is 3.33D-15 for   1169    195.
 Iteration    1 A^-1*A deviation from unit magnitude is 9.21D-15 for   1050.
 Iteration    1 A^-1*A deviation from orthogonality  is 1.12D-14 for   1050    212.
 Error on nuclear    polarization charges =  0.01907
 Error on electronic polarization charges = -0.04364
 SCF Done:  E(RB-P86) =  -419.981320018     A.U. after   11 cycles
            NFock= 11  Conv=0.15D-08     -V/T= 2.0049
 --------------------------------------------------------------------
 Variational C-PCM results
 =========================
 <psi(f)|   H    |psi(f)>                     (a.u.) =    -419.887672
 <psi(f)|H+V(f)/2|psi(f)>                     (a.u.) =    -419.981320
 Total free energy in solution:
 - with all non electrostatic terms           (a.u.) =    -419.969108
 --------------------------------------------------------------------
 (Polarized solute)-Solvent               (kcal/mol) =     -58.77
 --------------------------------------------------------------------
 Cavitation energy                        (kcal/mol) =      23.15
 Dispersion energy                        (kcal/mol) =     -16.89
 Repulsion energy                         (kcal/mol) =       1.41
 Total non electrostatic                  (kcal/mol) =       7.66
 --------------------------------------------------------------------
 Partition over spheres:
 Sphere  on Atom  Surface  Charge   GEl     GCav    GDR
    1      C1      19.55  -0.096   -5.02    2.30   -1.38
    2      N2       2.42  -0.013   -0.72    0.29   -0.08
    3      C3      15.74  -0.053   -2.85    1.85   -1.20
    4      C4      15.38  -0.052   -2.82    1.81   -1.02
    5      N5       1.82  -0.010   -0.55    0.22   -0.05
    6      C6       9.47  -0.055   -2.74    1.11   -0.48
    7      C7      12.44  -0.041   -2.06    1.46   -0.66
    8      O8      16.01   0.174    3.14    1.99   -1.46
    9      C9      15.49  -0.115   -6.82    1.82   -0.97
   10      H10      6.34  -0.061   -3.40    0.89   -0.65
   11      H11      6.49  -0.056   -2.80    0.92   -0.76
   12      H12      6.49  -0.055   -2.82    0.92   -0.76
   13      H13      6.34  -0.075   -4.05    0.89   -0.74
   14      H14      6.34  -0.075   -4.04    0.89   -0.72
   15      H15      6.44  -0.059   -2.97    0.91   -0.72
   16      H16      6.49  -0.057   -2.66    0.92   -0.73
   17      H17      6.60  -0.036   -1.73    0.93   -0.73
   18      H18      6.53  -0.042   -2.03    0.92   -0.69
   19      H19      8.56  -0.134   -6.12    1.21   -0.96
   20      H20      6.34  -0.091   -5.71    0.89   -0.72
 --------------------------------------------------------------------
 - cavitation energy not included in the total energy.
 - dispersion energy not included in the total energy.
 - repulsion  energy not included in the total energy.
 After PCM corrections, the energy is  -419.981320018     a.u.
 --------------------------------------------------------------------
 Writing COSMO formatted file "ZGZLRWJZGFRHHQ-UHFFFAOYSA-N.cosmo"
 Recomputed dielectric energy= -0.091858 old= -0.093648 diff= 1.79D-03

 **********************************************************************

            Population analysis using the SCF Density.

 **********************************************************************

 Orbital symmetries:
       Occupied  (A) (A) (A) (A) (A) (A) (A) (A) (A) (A) (A) (A)
                 (A) (A) (A) (A) (A) (A) (A) (A) (A) (A) (A) (A)
                 (A) (A) (A) (A) (A) (A) (A) (A) (A) (A)
       Virtual   (A) (A) (A) (A) (A) (A) (A) (A) (A) (A) (A) (A)
                 (A) (A) (A) (A) (A) (A) (A) (A) (A) (A) (A) (A)
                 (A) (A) (A) (A) (A) (A) (A) (A) (A) (A) (A) (A)
                 (A) (A) (A) (A) (A) (A) (A) (A) (A) (A) (A) (A)
                 (A) (A) (A) (A) (A) (A) (A) (A) (A) (A) (A) (A)
                 (A) (A) (A) (A) (A) (A) (A) (A) (A) (A) (A) (A)
                 (A) (A) (A) (A) (A) (A) (A) (A) (A) (A) (A) (A)
                 (A) (A) (A) (A) (A) (A) (A) (A) (A) (A) (A) (A)
                 (A) (A) (A) (A) (A) (A) (A) (A) (A) (A) (A) (A)
                 (A) (A) (A) (A) (A) (A) (A) (A) (A) (A) (A) (A)
                 (A) (A) (A) (A) (A) (A) (A) (A) (A) (A) (A) (A)
                 (A) (A) (A) (A) (A) (A) (A) (A) (A) (A) (A) (A)
                 (A) (A) (A) (A) (A) (A) (A) (A) (A) (A) (A) (A)
                 (A) (A) (A) (A) (A) (A) (A) (A) (A) (A) (A) (A)
                 (A) (A) (A) (A) (A) (A) (A) (A) (A) (A) (A) (A)
                 (A) (A) (A) (A) (A) (A) (A) (A) (A) (A) (A) (A)
                 (A) (A) (A) (A) (A) (A) (A) (A) (A) (A) (A)
 The electronic state is 1-A.
 Alpha  occ. eigenvalues --  -18.78083 -14.10698 -14.10628 -10.00171  -9.96052
 Alpha  occ. eigenvalues --   -9.95915  -9.95688  -9.95549  -9.94816  -1.00104
 Alpha  occ. eigenvalues --   -0.94658  -0.89083  -0.74767  -0.71764  -0.67199
 Alpha  occ. eigenvalues --   -0.60817  -0.58632  -0.56260  -0.51726  -0.47871
 Alpha  occ. eigenvalues --   -0.45958  -0.44795  -0.43515  -0.42424  -0.42254
 Alpha  occ. eigenvalues --   -0.41191  -0.40678  -0.37091  -0.36834  -0.34486
 Alpha  occ. eigenvalues --   -0.31727  -0.28385  -0.25343  -0.24239
 Alpha virt. eigenvalues --   -0.06516  -0.03562   0.01573   0.03091   0.03894
 Alpha virt. eigenvalues --    0.05015   0.05498   0.06954   0.07598   0.08051
 Alpha virt. eigenvalues --    0.09340   0.09537   0.10823   0.11018   0.11450
 Alpha virt. eigenvalues --    0.12020   0.13368   0.14793   0.16414   0.16795
 Alpha virt. eigenvalues --    0.17370   0.19612   0.20023   0.21512   0.22317
 Alpha virt. eigenvalues --    0.23317   0.24232   0.25572   0.26634   0.27517
 Alpha virt. eigenvalues --    0.27840   0.29214   0.29947   0.32608   0.33393
 Alpha virt. eigenvalues --    0.34370   0.35302   0.35768   0.36737   0.38385
 Alpha virt. eigenvalues --    0.38645   0.40049   0.40207   0.40825   0.41788
 Alpha virt. eigenvalues --    0.42028   0.42738   0.43645   0.45219   0.46081
 Alpha virt. eigenvalues --    0.47231   0.48231   0.48825   0.50196   0.51666
 Alpha virt. eigenvalues --    0.51987   0.55998   0.56653   0.57836   0.58335
 Alpha virt. eigenvalues --    0.60797   0.63319   0.65342   0.67430   0.68603
 Alpha virt. eigenvalues --    0.69465   0.72092   0.83878   0.86577   1.06925
 Alpha virt. eigenvalues --    1.13717   1.14080   1.15231   1.16500   1.17354
 Alpha virt. eigenvalues --    1.18488   1.19589   1.21108   1.21936   1.23476
 Alpha virt. eigenvalues --    1.25058   1.26538   1.26791   1.27695   1.28147
 Alpha virt. eigenvalues --    1.31033   1.31936   1.32292   1.33952   1.34584
 Alpha virt. eigenvalues --    1.35099   1.37858   1.39042   1.42064   1.43433
 Alpha virt. eigenvalues --    1.44109   1.45335   1.49724   1.50871   1.52187
 Alpha virt. eigenvalues --    1.53775   1.55036   1.57442   1.59490   1.60579
 Alpha virt. eigenvalues --    1.62377   1.64867   1.65664   1.66514   1.68045
 Alpha virt. eigenvalues --    1.69709   1.69891   1.70543   1.70763   1.71085
 Alpha virt. eigenvalues --    1.72204   1.74741   1.76290   1.79983   1.81751
 Alpha virt. eigenvalues --    1.82619   1.86071   1.86796   1.87109   1.89438
 Alpha virt. eigenvalues --    1.91131   1.94597   1.97416   2.02549   2.04355
 Alpha virt. eigenvalues --    2.06595   2.10653   2.15557   2.17527   2.18676
 Alpha virt. eigenvalues --    2.19535   2.21374   2.25154   2.27747   2.28396
 Alpha virt. eigenvalues --    2.28590   2.32763   2.33516   2.35391   2.37515
 Alpha virt. eigenvalues --    2.39404   2.40982   2.41629   2.42582   2.43164
 Alpha virt. eigenvalues --    2.44280   2.47532   2.47870   2.49022   2.50839
 Alpha virt. eigenvalues --    2.52770   2.54143   2.55424   2.58164   2.59387
 Alpha virt. eigenvalues --    2.59982   2.62620   2.65550   2.67322   2.70805
 Alpha virt. eigenvalues --    2.71112   2.72736   2.80934   2.82119   2.83836
 Alpha virt. eigenvalues --    2.84388   2.85296   2.89821   2.95679   2.98098
 Alpha virt. eigenvalues --    3.00022   3.06676   3.11580   3.15359   3.15898
 Alpha virt. eigenvalues --    3.19584   3.23669   3.25024   3.26608   3.29891
 Alpha virt. eigenvalues --    3.30378   3.42261   3.45972   3.50898   3.61452
 Alpha virt. eigenvalues --    3.62638   3.75536   3.85888   4.17036  21.46418
 Alpha virt. eigenvalues --   21.62701  21.69957  21.77937  21.85438  21.90431
 Alpha virt. eigenvalues --   31.45694  31.60795  43.08539
          Condensed to atoms (all electrons):
               1          2          3          4          5          6
     1  C    4.940054   0.256015  -0.058819   0.011805   0.007038  -0.000865
     2  N    0.256015   6.190588   0.420939  -0.095678  -0.084523  -0.002842
     3  C   -0.058819   0.420939   5.086865   0.436190  -0.084855   0.000717
     4  C    0.011805  -0.095678   0.436190   5.065275   0.412560  -0.052953
     5  N    0.007038  -0.084523  -0.084855   0.412560   6.290229   0.133196
     6  C   -0.000865  -0.002842   0.000717  -0.052953   0.133196   5.524114
     7  C    0.000185   0.002100   0.006507  -0.006775  -0.017856   0.077434
     8  O    0.000000   0.000009   0.000012   0.000365   0.008495  -0.136618
     9  C   -0.051856   0.464862  -0.105435  -0.116742   0.451700  -0.049351
    10  H    0.383143  -0.016106   0.010094  -0.001147   0.000749   0.000064
    11  H    0.406145  -0.032802  -0.006776   0.000541  -0.000392   0.000016
    12  H    0.404692  -0.032266  -0.006861   0.000864  -0.000284   0.000011
    13  H   -0.005067  -0.026572   0.402628  -0.030064   0.002528  -0.000195
    14  H   -0.000222   0.002580  -0.043142   0.414384  -0.029430   0.002174
    15  H    0.000116   0.001745  -0.002650   0.012783  -0.011126   0.352366
    16  H    0.000006  -0.000941   0.004456  -0.013134  -0.016334   0.364285
    17  H   -0.000035  -0.001248   0.002033  -0.004365   0.005402  -0.041161
    18  H    0.000024   0.000585  -0.002956   0.011540   0.004622  -0.047367
    19  H   -0.000000  -0.000002  -0.000006  -0.000081  -0.000870   0.017269
    20  H   -0.006141  -0.025167   0.004246   0.006950  -0.026684   0.005443
               7          8          9         10         11         12
     1  C    0.000185   0.000000  -0.051856   0.383143   0.406145   0.404692
     2  N    0.002100   0.000009   0.464862  -0.016106  -0.032802  -0.032266
     3  C    0.006507   0.000012  -0.105435   0.010094  -0.006776  -0.006861
     4  C   -0.006775   0.000365  -0.116742  -0.001147   0.000541   0.000864
     5  N   -0.017856   0.008495   0.451700   0.000749  -0.000392  -0.000284
     6  C    0.077434  -0.136618  -0.049351   0.000064   0.000016   0.000011
     7  C    5.060999   0.339143  -0.004417  -0.000005   0.000002  -0.000009
     8  O    0.339143   7.968979   0.000536  -0.000000  -0.000000   0.000000
     9  C   -0.004417   0.000536   4.958434  -0.009301   0.002102   0.002296
    10  H   -0.000005  -0.000000  -0.009301   0.489545  -0.020405  -0.020695
    11  H    0.000002  -0.000000   0.002102  -0.020405   0.486991  -0.027105
    12  H   -0.000009   0.000000   0.002296  -0.020695  -0.027105   0.487987
    13  H    0.000002  -0.000000   0.010690   0.000156  -0.000044   0.000060
    14  H   -0.004722  -0.000078   0.010315   0.000008   0.000000   0.000003
    15  H   -0.023455   0.016460  -0.007873  -0.000013  -0.000002   0.000001
    16  H   -0.028810   0.017450   0.008510   0.000002  -0.000001  -0.000000
    17  H    0.398922  -0.050066   0.006679   0.000011  -0.000002   0.000005
    18  H    0.405575  -0.050084  -0.001825  -0.000001  -0.000000   0.000000
    19  H   -0.039059   0.308932  -0.000090   0.000000   0.000000  -0.000000
    20  H   -0.003268  -0.000080   0.402637   0.001344   0.000022   0.000037
              13         14         15         16         17         18
     1  C   -0.005067  -0.000222   0.000116   0.000006  -0.000035   0.000024
     2  N   -0.026572   0.002580   0.001745  -0.000941  -0.001248   0.000585
     3  C    0.402628  -0.043142  -0.002650   0.004456   0.002033  -0.002956
     4  C   -0.030064   0.414384   0.012783  -0.013134  -0.004365   0.011540
     5  N    0.002528  -0.029430  -0.011126  -0.016334   0.005402   0.004622
     6  C   -0.000195   0.002174   0.352366   0.364285  -0.041161  -0.047367
     7  C    0.000002  -0.004722  -0.023455  -0.028810   0.398922   0.405575
     8  O   -0.000000  -0.000078   0.016460   0.017450  -0.050066  -0.050084
     9  C    0.010690   0.010315  -0.007873   0.008510   0.006679  -0.001825
    10  H    0.000156   0.000008  -0.000013   0.000002   0.000011  -0.000001
    11  H   -0.000044   0.000000  -0.000002  -0.000001  -0.000002  -0.000000
    12  H    0.000060   0.000003   0.000001  -0.000000   0.000005   0.000000
    13  H    0.442696   0.000837  -0.000005   0.000035   0.000014  -0.000020
    14  H    0.000837   0.451485   0.000416  -0.001042  -0.000154   0.001409
    15  H   -0.000005   0.000416   0.518358  -0.034494  -0.016946   0.011401
    16  H    0.000035  -0.001042  -0.034494   0.518577   0.011940  -0.016216
    17  H    0.000014  -0.000154  -0.016946   0.011940   0.606100  -0.062546
    18  H   -0.000020   0.001409   0.011401  -0.016216  -0.062546   0.598285
    19  H    0.000000  -0.000004  -0.000819  -0.000807  -0.002804  -0.003369
    20  H   -0.000038   0.000019  -0.000630   0.000184   0.000952  -0.000130
              19         20
     1  C   -0.000000  -0.006141
     2  N   -0.000002  -0.025167
     3  C   -0.000006   0.004246
     4  C   -0.000081   0.006950
     5  N   -0.000870  -0.026684
     6  C    0.017269   0.005443
     7  C   -0.039059  -0.003268
     8  O    0.308932  -0.000080
     9  C   -0.000090   0.402637
    10  H    0.000000   0.001344
    11  H    0.000000   0.000022
    12  H   -0.000000   0.000037
    13  H    0.000000  -0.000038
    14  H   -0.000004   0.000019
    15  H   -0.000819  -0.000630
    16  H   -0.000807   0.000184
    17  H   -0.002804   0.000952
    18  H   -0.003369  -0.000130
    19  H    0.396922   0.000003
    20  H    0.000003   0.426456
 Mulliken charges:
               1
     1  C   -0.286219
     2  N   -0.021276
     3  C   -0.063186
     4  C   -0.052318
     5  N   -0.044165
     6  C   -0.145738
     7  C   -0.162494
     8  O   -0.423457
     9  C    0.028131
    10  H    0.182557
    11  H    0.191709
    12  H    0.191264
    13  H    0.202359
    14  H    0.195165
    15  H    0.184367
    16  H    0.186334
    17  H    0.147268
    18  H    0.151072
    19  H    0.324785
    20  H    0.213843
 Sum of Mulliken charges =   1.00000
 Mulliken charges with hydrogens summed into heavy atoms:
               1
     1  C    0.279311
     2  N   -0.021276
     3  C    0.139172
     4  C    0.142847
     5  N   -0.044165
     6  C    0.224963
     7  C    0.135846
     8  O   -0.098672
     9  C    0.241975
 Electronic spatial extent (au):  <R**2>=           1586.9947
 Charge=              1.0000 electrons
 Dipole moment (field-independent basis, Debye):
    X=             -4.9041    Y=             -0.6901    Z=             -1.3923  Tot=              5.1444
 Quadrupole moment (field-independent basis, Debye-Ang):
   XX=            -28.3187   YY=            -41.2055   ZZ=            -49.9714
   XY=              2.6036   XZ=             -5.0217   YZ=             -0.6045
 Traceless Quadrupole moment (field-independent basis, Debye-Ang):
   XX=             11.5132   YY=             -1.3736   ZZ=            -10.1396
   XY=              2.6036   XZ=             -5.0217   YZ=             -0.6045
 Octapole moment (field-independent basis, Debye-Ang**2):
  XXX=            -45.6978  YYY=              0.9848  ZZZ=             -2.5441  XYY=             -9.1613
  XXY=            -10.0547  XXZ=            -40.5481  XZZ=             11.8132  YZZ=             -3.8239
  YYZ=              0.1245  XYZ=              6.1627
 Hexadecapole moment (field-independent basis, Debye-Ang**3):
 XXXX=          -1270.0513 YYYY=           -227.3311 ZZZZ=           -124.8781 XXXY=             -0.3327
 XXXZ=           -130.8968 YYYX=              7.7976 YYYZ=             -7.4926 ZZZX=             -6.1681
 ZZZY=              1.7442 XXYY=           -279.9064 XXZZ=           -241.4523 YYZZ=            -67.0339
 XXYZ=             14.1979 YYXZ=              2.1186 ZZXY=             -2.0261
 N-N= 4.540754841569D+02 E-N=-1.873755555374D+03  KE= 4.179400490290D+02
 Unable to Open any file for archive entry.
 1\1\GINC-TCN1658\SP\RBP86\TZVP\C6H11N2O1(1+)\ELENAA\23-Feb-2021\0\\# B
 P86/TZVP SCRF=COSMORS geom=CHECKPOINT guess=CHECKPOINT\\COSMO-file for
  #ZGZLRWJZGFRHHQ-UHFFFAOYSA-N\\1,1\C,0,-2.9157782369,-3.0327176221,4.1
 042040536\N,0,-2.5676869982,-2.0042576823,3.1147714971\C,0,-3.37740777
 22,-1.5888638286,2.0684597987\C,0,-2.6930056594,-0.6152939221,1.394337
 2273\N,0,-1.479452834,-0.4483023577,2.0450929878\C,0,-0.3939129145,0.4
 481440134,1.6221998164\C,0,0.485805315,-0.2163146888,0.5593400793\O,0,
 1.4850176237,0.753228352,0.2235460842\C,0,-1.4225572067,-1.3045787727,
 3.0818548848\H,0,-2.0826011091,-3.1478906236,4.804564693\H,0,-3.815726
 1972,-2.7206422651,4.6470460708\H,0,-3.0982231406,-3.9817280328,3.5865
 448799\H,0,-4.3599828363,-2.0144049557,1.9027716407\H,0,-2.9609185413,
 -0.0276310219,0.5242907151\H,0,0.2011441246,0.7071708595,2.5066029537\
 H,0,-0.8489532497,1.3649116145,1.2269185361\H,0,0.9310469213,-1.139045
 6504,0.9744175903\H,0,-0.1313831731,-0.4896735966,-0.3158669647\H,0,2.
 0587409601,0.3650300843,-0.4604408716\H,0,-0.5944850756,-1.4062799034,
 3.7738243275\\Version=ES64L-G16RevC.01\State=1-A\HF=-419.98132\RMSD=1.
 548e-09\Dipole=-1.0633014,-1.503874,0.8391978\Quadrupole=2.1488062,-5.
 2410271,3.0922209,2.3157036,-4.6405722,-5.9781466\PG=C01 [X(C6H11N2O1)
 ]\\@
 The archive entry for this job was punched.


 WHEN HAVING A MEETING OF THE MINDS,
 MAKE SURE YOU HAVE THE EQUIPMENT FOR IT.
 Job cpu time:       0 days  0 hours  5 minutes 32.9 seconds.
 Elapsed time:       0 days  0 hours  0 minutes 10.9 seconds.
 File lengths (MBytes):  RWF=     50 Int=      0 D2E=      0 Chk=      9 Scr=      1
 Normal termination of Gaussian 16 at Tue Feb 23 00:18:17 2021.
