 Entering Gaussian System, Link 0=g16
 Input=ZIBGPFATKBEMQZ-UHFFFAOYSA-N.gjf
 Output=ZIBGPFATKBEMQZ-UHFFFAOYSA-N.log
 Initial command:
 /sw/arch/RedHatEnterpriseServer7/EB_production/2019/software/Gaussian/g16.c01/l1.exe "/scratch-local/elenaa.9715306/Gau-26017.inp" -scrdir="/scratch-local/elenaa.9715306/"
 Entering Link 1 = /sw/arch/RedHatEnterpriseServer7/EB_production/2019/software/Gaussian/g16.c01/l1.exe PID=     26018.
  
 Copyright (c) 1988-2019, Gaussian, Inc.  All Rights Reserved.
  
 This is part of the Gaussian(R) 16 program.  It is based on
 the Gaussian(R) 09 system (copyright 2009, Gaussian, Inc.),
 the Gaussian(R) 03 system (copyright 2003, Gaussian, Inc.),
 the Gaussian(R) 98 system (copyright 1998, Gaussian, Inc.),
 the Gaussian(R) 94 system (copyright 1995, Gaussian, Inc.),
 the Gaussian 92(TM) system (copyright 1992, Gaussian, Inc.),
 the Gaussian 90(TM) system (copyright 1990, Gaussian, Inc.),
 the Gaussian 88(TM) system (copyright 1988, Gaussian, Inc.),
 the Gaussian 86(TM) system (copyright 1986, Carnegie Mellon
 University), and the Gaussian 82(TM) system (copyright 1983,
 Carnegie Mellon University). Gaussian is a federally registered
 trademark of Gaussian, Inc.
  
 This software contains proprietary and confidential information,
 including trade secrets, belonging to Gaussian, Inc.
  
 This software is provided under written license and may be
 used, copied, transmitted, or stored only in accord with that
 written license.
  
 The following legend is applicable only to US Government
 contracts under FAR:
  
                    RESTRICTED RIGHTS LEGEND
  
 Use, reproduction and disclosure by the US Government is
 subject to restrictions as set forth in subparagraphs (a)
 and (c) of the Commercial Computer Software - Restricted
 Rights clause in FAR 52.227-19.
  
 Gaussian, Inc.
 340 Quinnipiac St., Bldg. 40, Wallingford CT 06492
  
  
 ---------------------------------------------------------------
 Warning -- This program may not be used in any manner that
 competes with the business of Gaussian, Inc. or will provide
 assistance to any competitor of Gaussian, Inc.  The licensee
 of this program is prohibited from giving any competitor of
 Gaussian, Inc. access to this program.  By using this program,
 the user acknowledges that Gaussian, Inc. is engaged in the
 business of creating and licensing software in the field of
 computational chemistry and represents and warrants to the
 licensee that it is not a competitor of Gaussian, Inc. and that
 it will not use this program in any manner prohibited above.
 ---------------------------------------------------------------
  

 Cite this work as:
 Gaussian 16, Revision C.01,
 M. J. Frisch, G. W. Trucks, H. B. Schlegel, G. E. Scuseria, 
 M. A. Robb, J. R. Cheeseman, G. Scalmani, V. Barone, 
 G. A. Petersson, H. Nakatsuji, X. Li, M. Caricato, A. V. Marenich, 
 J. Bloino, B. G. Janesko, R. Gomperts, B. Mennucci, H. P. Hratchian, 
 J. V. Ortiz, A. F. Izmaylov, J. L. Sonnenberg, D. Williams-Young, 
 F. Ding, F. Lipparini, F. Egidi, J. Goings, B. Peng, A. Petrone, 
 T. Henderson, D. Ranasinghe, V. G. Zakrzewski, J. Gao, N. Rega, 
 G. Zheng, W. Liang, M. Hada, M. Ehara, K. Toyota, R. Fukuda, 
 J. Hasegawa, M. Ishida, T. Nakajima, Y. Honda, O. Kitao, H. Nakai, 
 T. Vreven, K. Throssell, J. A. Montgomery, Jr., J. E. Peralta, 
 F. Ogliaro, M. J. Bearpark, J. J. Heyd, E. N. Brothers, K. N. Kudin, 
 V. N. Staroverov, T. A. Keith, R. Kobayashi, J. Normand, 
 K. Raghavachari, A. P. Rendell, J. C. Burant, S. S. Iyengar, 
 J. Tomasi, M. Cossi, J. M. Millam, M. Klene, C. Adamo, R. Cammi, 
 J. W. Ochterski, R. L. Martin, K. Morokuma, O. Farkas, 
 J. B. Foresman, and D. J. Fox, Gaussian, Inc., Wallingford CT, 2019.
 
 ******************************************
 Gaussian 16:  ES64L-G16RevC.01  3-Jul-2019
                22-Feb-2021 
 ******************************************
 %chk=ZIBGPFATKBEMQZ-UHFFFAOYSA-N.chk
 %NProcShared=32
 Will use up to   32 processors via shared memory.
 -------------------------------------------------------------
 #P BP86/TZVP EmpiricalDispersion=GD3 SCRF=(Solvent=Water) Opt
 -------------------------------------------------------------
 1/18=20,19=15,26=3,38=1/1,3;
 2/9=110,12=2,17=6,18=5,40=1/2;
 3/5=19,7=101,11=2,25=1,30=1,70=2201,71=1,72=1,74=404,124=31/1,2,3;
 4//1;
 5/5=2,38=5,53=1/2;
 6/7=2,8=2,9=2,10=2,28=1/1;
 7//1,2,3,16;
 1/18=20,19=15,26=3/3(2);
 2/9=110/2;
 99//99;
 2/9=110/2;
 3/5=19,7=101,11=2,25=1,30=1,70=2205,71=1,72=1,74=404,124=31/1,2,3;
 4/5=5,16=3,69=1/1;
 5/5=2,38=5,53=1/2;
 7//1,2,3,16;
 1/18=20,19=15,26=3/3(-5);
 2/9=110/2;
 6/7=2,8=2,9=2,10=2,19=2,28=1/1;
 99/9=1/99;
 Leave Link    1 at Mon Feb 22 21:30:13 2021, MaxMem=           0 cpu:               1.9 elap:               0.1
 (Enter /sw/arch/RedHatEnterpriseServer7/EB_production/2019/software/Gaussian/g16.c01/l101.exe)
 -------------------------------------
 Particle #ZIBGPFATKBEMQZ-UHFFFAOYSA-N
 -------------------------------------
 Symbolic Z-matrix:
 Charge =  0 Multiplicity = 1
 O                    -0.20913  -0.68542  -2.098 
 C                    -0.74055  -0.35876  -0.81784 
 C                     0.13921   0.70444  -0.13511 
 O                    -0.40844   1.02547   1.15764 
 C                     0.34434   2.01578   1.88595 
 C                    -0.32936   2.27671   3.24567 
 O                     0.4301    3.26496   3.96669 
 C                    -0.10582   3.60572   5.25914 
 C                     0.78457   4.68168   5.90968 
 O                     0.81793   5.85943   5.1098 
 H                    -0.81742  -1.36059  -2.46513 
 H                    -0.77382  -1.26275  -0.20615 
 H                    -1.75627   0.02252  -0.94191 
 H                     0.16732   1.59562  -0.76842 
 H                     1.15253   0.30646  -0.03088 
 H                     1.36552   1.66507   2.06137 
 H                     0.37985   2.95489   1.326 
 H                    -1.3489    2.63244   3.07064 
 H                    -0.36697   1.33876   3.80736 
 H                    -0.12192   2.7263    5.90855 
 H                    -1.12329   3.99638   5.16644 
 H                     0.39288   4.93825   6.89609 
 H                     1.80085   4.30052   6.02419 
 H                     1.38769   6.48581   5.60361 
 
 ITRead=  0  0  0  0  0  0  0  0  0  0  0  0  0  0  0  0  0  0  0  0
 ITRead=  0  0  0  0
 MicOpt= -1 -1 -1 -1 -1 -1 -1 -1 -1 -1 -1 -1 -1 -1 -1 -1 -1 -1 -1 -1
 MicOpt= -1 -1 -1 -1
 NAtoms=     24 NQM=       24 NQMF=       0 NMMI=      0 NMMIF=      0
                NMic=       0 NMicF=      0.
                    Isotopes and Nuclear Properties:
 (Nuclear quadrupole moments (NQMom) in fm**2, nuclear magnetic moments (NMagM)
  in nuclear magnetons)

  Atom         1           2           3           4           5           6           7           8           9          10
 IAtWgt=          16          12          12          16          12          12          16          12          12          16
 AtmWgt=  15.9949146  12.0000000  12.0000000  15.9949146  12.0000000  12.0000000  15.9949146  12.0000000  12.0000000  15.9949146
 NucSpn=           0           0           0           0           0           0           0           0           0           0
 AtZEff=  -0.0000000  -0.0000000  -0.0000000  -0.0000000  -0.0000000  -0.0000000  -0.0000000  -0.0000000  -0.0000000  -0.0000000
 NQMom=    0.0000000   0.0000000   0.0000000   0.0000000   0.0000000   0.0000000   0.0000000   0.0000000   0.0000000   0.0000000
 NMagM=    0.0000000   0.0000000   0.0000000   0.0000000   0.0000000   0.0000000   0.0000000   0.0000000   0.0000000   0.0000000
 AtZNuc=   8.0000000   6.0000000   6.0000000   8.0000000   6.0000000   6.0000000   8.0000000   6.0000000   6.0000000   8.0000000

  Atom        11          12          13          14          15          16          17          18          19          20
 IAtWgt=           1           1           1           1           1           1           1           1           1           1
 AtmWgt=   1.0078250   1.0078250   1.0078250   1.0078250   1.0078250   1.0078250   1.0078250   1.0078250   1.0078250   1.0078250
 NucSpn=           1           1           1           1           1           1           1           1           1           1
 AtZEff=  -0.0000000  -0.0000000  -0.0000000  -0.0000000  -0.0000000  -0.0000000  -0.0000000  -0.0000000  -0.0000000  -0.0000000
 NQMom=    0.0000000   0.0000000   0.0000000   0.0000000   0.0000000   0.0000000   0.0000000   0.0000000   0.0000000   0.0000000
 NMagM=    2.7928460   2.7928460   2.7928460   2.7928460   2.7928460   2.7928460   2.7928460   2.7928460   2.7928460   2.7928460
 AtZNuc=   1.0000000   1.0000000   1.0000000   1.0000000   1.0000000   1.0000000   1.0000000   1.0000000   1.0000000   1.0000000

  Atom        21          22          23          24
 IAtWgt=           1           1           1           1
 AtmWgt=   1.0078250   1.0078250   1.0078250   1.0078250
 NucSpn=           1           1           1           1
 AtZEff=  -0.0000000  -0.0000000  -0.0000000  -0.0000000
 NQMom=    0.0000000   0.0000000   0.0000000   0.0000000
 NMagM=    2.7928460   2.7928460   2.7928460   2.7928460
 AtZNuc=   1.0000000   1.0000000   1.0000000   1.0000000
 Leave Link  101 at Mon Feb 22 21:30:13 2021, MaxMem=   104857600 cpu:               3.0 elap:               0.1
 (Enter /sw/arch/RedHatEnterpriseServer7/EB_production/2019/software/Gaussian/g16.c01/l103.exe)

 GradGradGradGradGradGradGradGradGradGradGradGradGradGradGradGradGradGrad
 Berny optimization.
 Initialization pass.
                           ----------------------------
                           !    Initial Parameters    !
                           ! (Angstroms and Degrees)  !
 --------------------------                            --------------------------
 ! Name  Definition              Value          Derivative Info.                !
 --------------------------------------------------------------------------------
 ! R1    R(1,2)                  1.4241         estimate D2E/DX2                !
 ! R2    R(1,11)                 0.9801         estimate D2E/DX2                !
 ! R3    R(2,3)                  1.5396         estimate D2E/DX2                !
 ! R4    R(2,12)                 1.092          estimate D2E/DX2                !
 ! R5    R(2,13)                 1.092          estimate D2E/DX2                !
 ! R6    R(3,4)                  1.4402         estimate D2E/DX2                !
 ! R7    R(3,14)                 1.0937         estimate D2E/DX2                !
 ! R8    R(3,15)                 1.0936         estimate D2E/DX2                !
 ! R9    R(4,5)                  1.4415         estimate D2E/DX2                !
 ! R10   R(5,6)                  1.5397         estimate D2E/DX2                !
 ! R11   R(5,16)                 1.0939         estimate D2E/DX2                !
 ! R12   R(5,17)                 1.094          estimate D2E/DX2                !
 ! R13   R(6,7)                  1.4399         estimate D2E/DX2                !
 ! R14   R(6,18)                 1.0939         estimate D2E/DX2                !
 ! R15   R(6,19)                 1.0939         estimate D2E/DX2                !
 ! R16   R(7,8)                  1.4401         estimate D2E/DX2                !
 ! R17   R(8,9)                  1.5407         estimate D2E/DX2                !
 ! R18   R(8,20)                 1.0933         estimate D2E/DX2                !
 ! R19   R(8,21)                 1.0938         estimate D2E/DX2                !
 ! R20   R(9,10)                 1.4241         estimate D2E/DX2                !
 ! R21   R(9,22)                 1.0919         estimate D2E/DX2                !
 ! R22   R(9,23)                 1.0914         estimate D2E/DX2                !
 ! R23   R(10,24)                0.9802         estimate D2E/DX2                !
 ! A1    A(2,1,11)             105.2564         estimate D2E/DX2                !
 ! A2    A(1,2,3)              110.1084         estimate D2E/DX2                !
 ! A3    A(1,2,12)             108.9674         estimate D2E/DX2                !
 ! A4    A(1,2,13)             108.9694         estimate D2E/DX2                !
 ! A5    A(3,2,12)             109.918          estimate D2E/DX2                !
 ! A6    A(3,2,13)             109.9234         estimate D2E/DX2                !
 ! A7    A(12,2,13)            108.9261         estimate D2E/DX2                !
 ! A8    A(2,3,4)              109.5531         estimate D2E/DX2                !
 ! A9    A(2,3,14)             108.6998         estimate D2E/DX2                !
 ! A10   A(2,3,15)             108.6874         estimate D2E/DX2                !
 ! A11   A(4,3,14)             110.3605         estimate D2E/DX2                !
 ! A12   A(4,3,15)             110.3588         estimate D2E/DX2                !
 ! A13   A(14,3,15)            109.1416         estimate D2E/DX2                !
 ! A14   A(3,4,5)              114.0845         estimate D2E/DX2                !
 ! A15   A(4,5,6)              109.5184         estimate D2E/DX2                !
 ! A16   A(4,5,16)             110.3824         estimate D2E/DX2                !
 ! A17   A(4,5,17)             110.3714         estimate D2E/DX2                !
 ! A18   A(6,5,16)             108.7342         estimate D2E/DX2                !
 ! A19   A(6,5,17)             108.7077         estimate D2E/DX2                !
 ! A20   A(16,5,17)            109.0875         estimate D2E/DX2                !
 ! A21   A(5,6,7)              109.1312         estimate D2E/DX2                !
 ! A22   A(5,6,18)             108.7601         estimate D2E/DX2                !
 ! A23   A(5,6,19)             108.855          estimate D2E/DX2                !
 ! A24   A(7,6,18)             110.3965         estimate D2E/DX2                !
 ! A25   A(7,6,19)             110.4566         estimate D2E/DX2                !
 ! A26   A(18,6,19)            109.2044         estimate D2E/DX2                !
 ! A27   A(6,7,8)              114.5533         estimate D2E/DX2                !
 ! A28   A(7,8,9)              109.2168         estimate D2E/DX2                !
 ! A29   A(7,8,20)             110.3797         estimate D2E/DX2                !
 ! A30   A(7,8,21)             110.7705         estimate D2E/DX2                !
 ! A31   A(9,8,20)             108.6291         estimate D2E/DX2                !
 ! A32   A(9,8,21)             108.9014         estimate D2E/DX2                !
 ! A33   A(20,8,21)            108.8998         estimate D2E/DX2                !
 ! A34   A(8,9,10)             110.7284         estimate D2E/DX2                !
 ! A35   A(8,9,22)             109.7693         estimate D2E/DX2                !
 ! A36   A(8,9,23)             109.7878         estimate D2E/DX2                !
 ! A37   A(10,9,22)            108.7529         estimate D2E/DX2                !
 ! A38   A(10,9,23)            109.0224         estimate D2E/DX2                !
 ! A39   A(22,9,23)            108.7417         estimate D2E/DX2                !
 ! A40   A(9,10,24)            105.0191         estimate D2E/DX2                !
 ! D1    D(11,1,2,3)           179.9952         estimate D2E/DX2                !
 ! D2    D(11,1,2,12)           59.3681         estimate D2E/DX2                !
 ! D3    D(11,1,2,13)          -59.3697         estimate D2E/DX2                !
 ! D4    D(1,2,3,4)           -179.9868         estimate D2E/DX2                !
 ! D5    D(1,2,3,14)            59.3488         estimate D2E/DX2                !
 ! D6    D(1,2,3,15)           -59.3321         estimate D2E/DX2                !
 ! D7    D(12,2,3,4)           -59.933          estimate D2E/DX2                !
 ! D8    D(12,2,3,14)          179.4026         estimate D2E/DX2                !
 ! D9    D(12,2,3,15)           60.7217         estimate D2E/DX2                !
 ! D10   D(13,2,3,4)            59.9535         estimate D2E/DX2                !
 ! D11   D(13,2,3,14)          -60.711          estimate D2E/DX2                !
 ! D12   D(13,2,3,15)         -179.3918         estimate D2E/DX2                !
 ! D13   D(2,3,4,5)            179.9402         estimate D2E/DX2                !
 ! D14   D(14,3,4,5)           -60.4092         estimate D2E/DX2                !
 ! D15   D(15,3,4,5)            60.3061         estimate D2E/DX2                !
 ! D16   D(3,4,5,6)           -179.9362         estimate D2E/DX2                !
 ! D17   D(3,4,5,16)           -60.2515         estimate D2E/DX2                !
 ! D18   D(3,4,5,17)            60.4185         estimate D2E/DX2                !
 ! D19   D(4,5,6,7)            179.9084         estimate D2E/DX2                !
 ! D20   D(4,5,6,18)           -59.6003         estimate D2E/DX2                !
 ! D21   D(4,5,6,19)            59.2867         estimate D2E/DX2                !
 ! D22   D(16,5,6,7)            59.2171         estimate D2E/DX2                !
 ! D23   D(16,5,6,18)          179.7084         estimate D2E/DX2                !
 ! D24   D(16,5,6,19)          -61.4046         estimate D2E/DX2                !
 ! D25   D(17,5,6,7)           -59.4299         estimate D2E/DX2                !
 ! D26   D(17,5,6,18)           61.0613         estimate D2E/DX2                !
 ! D27   D(17,5,6,19)          179.9483         estimate D2E/DX2                !
 ! D28   D(5,6,7,8)            179.58           estimate D2E/DX2                !
 ! D29   D(18,6,7,8)            60.0973         estimate D2E/DX2                !
 ! D30   D(19,6,7,8)           -60.784          estimate D2E/DX2                !
 ! D31   D(6,7,8,9)           -179.1545         estimate D2E/DX2                !
 ! D32   D(6,7,8,20)            61.4807         estimate D2E/DX2                !
 ! D33   D(6,7,8,21)           -59.2138         estimate D2E/DX2                !
 ! D34   D(7,8,9,10)            60.594          estimate D2E/DX2                !
 ! D35   D(7,8,9,22)          -179.3211         estimate D2E/DX2                !
 ! D36   D(7,8,9,23)           -59.8384         estimate D2E/DX2                !
 ! D37   D(20,8,9,10)         -178.963          estimate D2E/DX2                !
 ! D38   D(20,8,9,22)          -58.8781         estimate D2E/DX2                !
 ! D39   D(20,8,9,23)           60.6047         estimate D2E/DX2                !
 ! D40   D(21,8,9,10)          -60.4908         estimate D2E/DX2                !
 ! D41   D(21,8,9,22)           59.5941         estimate D2E/DX2                !
 ! D42   D(21,8,9,23)          179.0769         estimate D2E/DX2                !
 ! D43   D(8,9,10,24)          179.0289         estimate D2E/DX2                !
 ! D44   D(22,9,10,24)          58.3384         estimate D2E/DX2                !
 ! D45   D(23,9,10,24)         -60.0839         estimate D2E/DX2                !
 --------------------------------------------------------------------------------
 Trust Radius=3.00D-01 FncErr=1.00D-07 GrdErr=1.00D-06 EigMax=2.50D+02 EigMin=1.00D-04
 Number of steps in this run=    118 maximum allowed number of steps=    144.
 GradGradGradGradGradGradGradGradGradGradGradGradGradGradGradGradGradGrad

 Leave Link  103 at Mon Feb 22 21:30:13 2021, MaxMem=   104857600 cpu:               0.3 elap:               0.0
 (Enter /sw/arch/RedHatEnterpriseServer7/EB_production/2019/software/Gaussian/g16.c01/l202.exe)
                          Input orientation:                          
 ---------------------------------------------------------------------
 Center     Atomic      Atomic             Coordinates (Angstroms)
 Number     Number       Type             X           Y           Z
 ---------------------------------------------------------------------
      1          8           0       -0.209130   -0.685420   -2.098000
      2          6           0       -0.740550   -0.358760   -0.817840
      3          6           0        0.139210    0.704440   -0.135110
      4          8           0       -0.408440    1.025470    1.157640
      5          6           0        0.344340    2.015780    1.885950
      6          6           0       -0.329360    2.276710    3.245670
      7          8           0        0.430100    3.264960    3.966690
      8          6           0       -0.105820    3.605720    5.259140
      9          6           0        0.784570    4.681680    5.909680
     10          8           0        0.817930    5.859430    5.109800
     11          1           0       -0.817420   -1.360590   -2.465130
     12          1           0       -0.773820   -1.262750   -0.206150
     13          1           0       -1.756270    0.022520   -0.941910
     14          1           0        0.167320    1.595620   -0.768420
     15          1           0        1.152530    0.306460   -0.030880
     16          1           0        1.365520    1.665070    2.061370
     17          1           0        0.379850    2.954890    1.326000
     18          1           0       -1.348900    2.632440    3.070640
     19          1           0       -0.366970    1.338760    3.807360
     20          1           0       -0.121920    2.726300    5.908550
     21          1           0       -1.123290    3.996380    5.166440
     22          1           0        0.392880    4.938250    6.896090
     23          1           0        1.800850    4.300520    6.024190
     24          1           0        1.387690    6.485810    5.603610
 ---------------------------------------------------------------------
                    Distance matrix (angstroms):
                    1          2          3          4          5
     1  O    0.000000
     2  C    1.424052   0.000000
     3  C    2.430224   1.539640   0.000000
     4  O    3.683213   2.434936   1.440203   0.000000
     5  C    4.845066   3.758445   2.417928   1.441467   0.000000
     6  C    6.110931   4.860750   3.757827   2.435513   1.539738
     7  O    7.265988   6.115022   4.844135   3.689069   2.428432
     8  C    8.517750   7.283520   6.129878   4.855056   3.756190
     9  C    9.691034   8.543509   7.264600   6.113348   4.846775
    10  O    9.789908   8.731075   7.385368   6.363232   5.038962
    11  H    0.980130   1.929543   3.257067   4.357179   5.628628
    12  H    2.057008   1.092003   2.169909   2.688750   4.046718
    13  H    2.057028   1.091996   2.169974   2.688990   4.047523
    14  H    2.666954   2.155521   1.093651   2.089564   2.693242
    15  H    2.666633   2.155360   1.093650   2.089541   2.692431
    16  H    5.030376   4.101374   2.692800   2.091112   1.093882
    17  H    5.032150   4.102636   2.693933   2.091030   1.093953
    18  H    6.246768   4.943445   4.025977   2.669529   2.156576
    19  H    6.244637   4.941013   4.025127   2.668499   2.157808
    20  H    8.703579   7.425942   6.378239   5.054311   4.111392
    21  H    8.690629   7.411163   6.366884   5.040614   4.103453
    22  H   10.624582   9.425906   8.211411   6.991550   5.800404
    23  H    9.740102   8.659156   7.323238   6.268191   4.946361
    24  H   10.643833   9.623542   8.241107   7.266914   5.906839
                    6          7          8          9         10
     6  C    0.000000
     7  O    1.439891   0.000000
     8  C    2.422870   1.440054   0.000000
     9  C    3.757881   2.430628   1.540677   0.000000
    10  O    4.198468   2.861536   2.440251   1.424084   0.000000
    11  H    6.788328   8.019995   9.210589  10.450495  10.591630
    12  H    4.963908   6.273928   7.349668   8.669960   9.028756
    13  H    4.965206   6.275985   7.349580   8.666483   8.793135
    14  H    4.101645   5.027625   6.359763   7.382532   7.290874
    15  H    4.100447   5.025455   6.360257   7.387029   7.574564
    16  H    2.156221   2.657989   4.019539   4.924117   5.213965
    17  H    2.155931   2.659307   4.016098   4.914847   4.790137
    18  H    1.093911   2.089935   2.698528   4.100150   4.389395
    19  H    1.093920   2.090682   2.704621   4.113503   4.851474
    20  H    2.708522   2.089426   1.093331   2.155281   3.367168
    21  H    2.697582   2.094611   1.093825   2.159160   2.691189
    22  H    4.575040   3.373821   2.168858   1.091904   2.054281
    23  H    4.043980   2.680419   2.168741   1.091430   2.057290
    24  H    5.121002   3.737695   3.262537   1.926738   0.980218
                   11         12         13         14         15
    11  H    0.000000
    12  H    2.261518   0.000000
    13  H    2.261555   1.777208   0.000000
    14  H    3.547917   3.061400   2.490972   0.000000
    15  H    3.547581   2.490776   3.061326   1.782284   0.000000
    16  H    5.865923   4.276746   4.632843   3.073795   2.503736
    17  H    5.867665   4.633241   4.278460   2.505869   3.074466
    18  H    6.846277   5.122555   4.803977   4.255855   4.613758
    19  H    6.843502   4.800171   5.120372   4.614023   4.255186
    20  H    9.343709   7.329874   7.543893   6.778202   6.538859
    21  H    9.329070   7.526307   7.314654   6.530841   6.768087
    22  H   11.347804   9.500284   9.498289   8.364733   8.367405
    23  H   10.534328   8.740483   8.915208   7.491626   7.282630
    24  H   11.468787   9.922984   9.721236   8.124409   8.365832
                   16         17         18         19         20
    16  H    0.000000
    17  H    1.782120   0.000000
    18  H    3.053278   2.477160   0.000000
    19  H    2.481226   3.053975   1.783410   0.000000
    20  H    4.259047   4.615603   3.093222   2.529885   0.000000
    21  H    4.612011   4.253600   2.510699   3.079296   1.779487
    22  H    5.918974   5.912680   4.794228   4.803535   2.476485
    23  H    4.779022   5.089494   4.628917   4.287867   2.487687
    24  H    5.982265   5.637471   5.362212   5.726907   4.062736
                   21         22         23         24
    21  H    0.000000
    22  H    2.485474   0.000000
    23  H    3.062488   1.774624   0.000000
    24  H    3.562780   2.248353   2.263422   0.000000
 Stoichiometry    C6H14O4
 Framework group  C1[X(C6H14O4)]
 Deg. of freedom    66
 Full point group                 C1      NOp   1
 Largest Abelian subgroup         C1      NOp   1
 Largest concise Abelian subgroup C1      NOp   1
                         Standard orientation:                         
 ---------------------------------------------------------------------
 Center     Atomic      Atomic             Coordinates (Angstroms)
 Number     Number       Type             X           Y           Z
 ---------------------------------------------------------------------
      1          8           0        5.307942    0.480474    0.061527
      2          6           0        4.158614   -0.312330   -0.218527
      3          6           0        2.880491    0.451187    0.173817
      4          8           0        1.726413   -0.360911   -0.113905
      5          6           0        0.470327    0.262943    0.219083
      6          6           0       -0.686427   -0.692164   -0.128026
      7          8           0       -1.936254   -0.061963    0.209712
      8          6           0       -3.103291   -0.855113   -0.077851
      9          6           0       -4.364851   -0.059845    0.309062
     10          8           0       -4.446283    1.150430   -0.437007
     11          1           0        6.072624   -0.068069   -0.212367
     12          1           0        4.223760   -1.244129    0.347138
     13          1           0        4.139874   -0.546017   -1.285061
     14          1           0        2.840724    1.384181   -0.395405
     15          1           0        2.925240    0.684090    1.241442
     16          1           0        0.429460    0.490240    1.288309
     17          1           0        0.342882    1.189290   -0.348695
     18          1           0       -0.649076   -0.915621   -1.198219
     19          1           0       -0.560823   -1.619873    0.437871
     20          1           0       -3.084670   -1.783214    0.499777
     21          1           0       -3.152279   -1.101315   -1.142482
     22          1           0       -5.255362   -0.658114    0.105794
     23          1           0       -4.338690    0.179556    1.373592
     24          1           0       -5.277378    1.576692   -0.139668
 ---------------------------------------------------------------------
 Rotational constants (GHZ):           6.3008189           0.2910898           0.2836588
 Leave Link  202 at Mon Feb 22 21:30:13 2021, MaxMem=   104857600 cpu:               0.2 elap:               0.0
 (Enter /sw/arch/RedHatEnterpriseServer7/EB_production/2019/software/Gaussian/g16.c01/l301.exe)
 Standard basis: TZVP (5D, 7F)
 Ernie: Thresh=  0.10000D-02 Tol=  0.10000D-05 Strict=F.
 There are   284 symmetry adapted cartesian basis functions of A   symmetry.
 There are   274 symmetry adapted basis functions of A   symmetry.
   274 basis functions,   462 primitive gaussians,   284 cartesian basis functions
    41 alpha electrons       41 beta electrons
       nuclear repulsion energy       534.3350262319 Hartrees.
 IExCor=  404 DFT=T Ex=B Corr=P86 ExCW=0 ScaHFX=  0.000000
 ScaDFX=  1.000000  1.000000  1.000000  1.000000 ScalE2=  1.000000  1.000000
 IRadAn=      5 IRanWt=     -1 IRanGd=            0 ICorTp=0 IEmpDi=131
 NAtoms=   24 NActive=   24 NUniq=   24 SFac= 1.00D+00 NAtFMM=   60 NAOKFM=F Big=F
 Integral buffers will be    131072 words long.
 Raffenetti 2 integral format.
 Two-electron integral symmetry is turned on.
 R6Disp:  Grimme-D3 Dispersion energy=       -0.0185968323 Hartrees.
 Nuclear repulsion after empirical dispersion term =      534.3164293995 Hartrees.
 ------------------------------------------------------------------------------
 Polarizable Continuum Model (PCM)
 =================================
 Model                : PCM.
 Atomic radii         : UFF (Universal Force Field).
 Polarization charges : Total charges.
 Charge compensation  : None.
 Solution method      : On-the-fly selection.
 Cavity type          : Scaled VdW (van der Waals Surface) (Alpha=1.100).
 Cavity algorithm     : GePol (No added spheres)
                        Default sphere list used, NSphG=   24.
                        Lebedev-Laikov grids with approx.  5.0 points / Ang**2.
                        Smoothing algorithm: York/Karplus (Gamma=1.0000).
                        Polarization charges: spherical gaussians, with
                                              point-specific exponents (IZeta= 3).
                        Self-potential: point-specific (ISelfS= 7).
                        Self-field    : sphere-specific E.n sum rule (ISelfD= 2).
 1st derivatives      : Analytical E(r).r(x)/FMM algorithm (CHGder, D1EAlg=3).
                        Cavity 1st derivative terms included.
 Solvent              : Water, Eps=  78.355300 Eps(inf)=   1.777849
 ------------------------------------------------------------------------------
 GePol: Number of generator spheres                  =      24
 GePol: Total number of spheres                      =      24
 GePol: Number of exposed spheres                    =      24 (100.00%)
 GePol: Number of points                             =    1902
 GePol: Average weight of points                     =       0.13
 GePol: Minimum weight of points                     =   0.13D-11
 GePol: Maximum weight of points                     =    0.20577
 GePol: Number of points with low weight             =     139
 GePol: Fraction of low-weight points (<1% of avg)   =       7.31%
 GePol: Cavity surface area                          =    251.702 Ang**2
 GePol: Cavity volume                                =    237.682 Ang**3
 Leave Link  301 at Mon Feb 22 21:30:13 2021, MaxMem=   104857600 cpu:               2.8 elap:               0.1
 (Enter /sw/arch/RedHatEnterpriseServer7/EB_production/2019/software/Gaussian/g16.c01/l302.exe)
 NPDir=0 NMtPBC=     1 NCelOv=     1 NCel=       1 NClECP=     1 NCelD=      1
         NCelK=      1 NCelE2=     1 NClLst=     1 CellRange=     0.0.
 One-electron integrals computed using PRISM.
 One-electron integral symmetry used in STVInt
 PrsmSu:  requested number of processors reduced to:  28 ShMem   1 Linda.
 NBasis=   274 RedAO= T EigKep=  3.53D-04  NBF=   274
 NBsUse=   274 1.00D-06 EigRej= -1.00D+00 NBFU=   274
 Precomputing XC quadrature grid using
 IXCGrd= 4 IRadAn=           5 IRanWt=          -1 IRanGd=           0 AccXCQ= 0.00D+00.
 Generated NRdTot=       0 NPtTot=           0 NUsed=           0 NTot=          32
 NSgBfM=   276   276   276   276   276 MxSgAt=    24 MxSgA2=    24.
 Leave Link  302 at Mon Feb 22 21:30:14 2021, MaxMem=   104857600 cpu:               8.1 elap:               0.3
 (Enter /sw/arch/RedHatEnterpriseServer7/EB_production/2019/software/Gaussian/g16.c01/l303.exe)
 DipDrv:  MaxL=1.
 Leave Link  303 at Mon Feb 22 21:30:14 2021, MaxMem=   104857600 cpu:               1.4 elap:               0.1
 (Enter /sw/arch/RedHatEnterpriseServer7/EB_production/2019/software/Gaussian/g16.c01/l401.exe)
 ExpMin= 9.52D-02 ExpMax= 2.70D+04 ExpMxC= 9.22D+02 IAcc=3 IRadAn=         5 AccDes= 0.00D+00
 Harris functional with IExCor=  404 and IRadAn=       5 diagonalized for initial guess.
 HarFok:  IExCor=  404 AccDes= 0.00D+00 IRadAn=         5 IDoV= 1 UseB2=F ITyADJ=14
 ICtDFT=  3500011 ScaDFX=  1.000000  1.000000  1.000000  1.000000
 FoFCou: FMM=F IPFlag=           0 FMFlag=      100000 FMFlg1=           0
         NFxFlg=           0 DoJE=T BraDBF=F KetDBF=T FulRan=T
         wScrn=  0.000000 ICntrl=       500 IOpCl=  0 I1Cent=   200000004 NGrid=           0
         NMat0=    1 NMatS0=      1 NMatT0=    0 NMatD0=    1 NMtDS0=    0 NMtDT0=    0
 Petite list used in FoFCou.
 Harris En= -538.299339671751    
 JPrj=0 DoOrth=F DoCkMO=F.
 Leave Link  401 at Mon Feb 22 21:30:14 2021, MaxMem=   104857600 cpu:              14.0 elap:               0.5
 (Enter /sw/arch/RedHatEnterpriseServer7/EB_production/2019/software/Gaussian/g16.c01/l502.exe)
 Integral symmetry usage will be decided dynamically.
 Closed shell SCF:
 Using DIIS extrapolation, IDIIS=  1040.
 NGot=   104857600 LenX=   104683614 LenY=   104602517
 Requested convergence on RMS density matrix=1.00D-08 within 128 cycles.
 Requested convergence on MAX density matrix=1.00D-06.
 Requested convergence on             energy=1.00D-06.
 No special actions if energy rises.
 Fock matrices will be formed incrementally for  20 cycles.

 Cycle   1  Pass 1  IDiag  1:
 FoFJK:  IHMeth= 1 ICntrl=     500 DoSepK=F KAlg= 0 I1Cent=           0 FoldK=F
 IRaf= 800000000 NMat=       1 IRICut=       1 DoRegI=T DoRafI=F ISym2E= 0 IDoP0=0 IntGTp=1.
 FoFCou: FMM=F IPFlag=           0 FMFlag=      100000 FMFlg1=           0
         NFxFlg=           0 DoJE=T BraDBF=F KetDBF=F FulRan=T
         wScrn=  0.000000 ICntrl=       500 IOpCl=  0 I1Cent=           0 NGrid=           0
         NMat0=    1 NMatS0=      1 NMatT0=    0 NMatD0=    1 NMtDS0=    0 NMtDT0=    0
 Symmetry not used in FoFCou.
 Inv3:  Mode=1 IEnd=    10852812.
 Iteration    1 A*A^-1 deviation from unit magnitude is 3.33D-15 for    749.
 Iteration    1 A*A^-1 deviation from orthogonality  is 2.85D-15 for   1611    943.
 Iteration    1 A^-1*A deviation from unit magnitude is 3.00D-15 for   1476.
 Iteration    1 A^-1*A deviation from orthogonality  is 2.11D-15 for   1653   1460.
 E= -537.917873423642    
 DIIS: error= 2.47D-02 at cycle   1 NSaved=   1.
 NSaved= 1 IEnMin= 1 EnMin= -537.917873423642     IErMin= 1 ErrMin= 2.47D-02
 ErrMax= 2.47D-02  0.00D+00 EMaxC= 1.00D-01 BMatC= 2.41D-01 BMatP= 2.41D-01
 IDIUse=3 WtCom= 7.53D-01 WtEn= 2.47D-01
 Coeff-Com:  0.100D+01
 Coeff-En:   0.100D+01
 Coeff:      0.100D+01
 Gap=     0.205 Goal=   None    Shift=    0.000
 GapD=    0.205 DampG=1.000 DampE=0.500 DampFc=0.5000 IDamp=-1.
 Damping current iteration by 5.00D-01
 RMSDP=5.56D-03 MaxDP=1.87D-01              OVMax= 1.81D-01

 Cycle   2  Pass 1  IDiag  1:
 RMSU=  2.78D-03    CP:  9.95D-01
 E= -537.968327802472     Delta-E=       -0.050454378830 Rises=F Damp=T
 DIIS: error= 9.39D-03 at cycle   2 NSaved=   2.
 NSaved= 2 IEnMin= 2 EnMin= -537.968327802472     IErMin= 2 ErrMin= 9.39D-03
 ErrMax= 9.39D-03  0.00D+00 EMaxC= 1.00D-01 BMatC= 4.39D-02 BMatP= 2.41D-01
 IDIUse=3 WtCom= 9.06D-01 WtEn= 9.39D-02
 Coeff-Com:  0.259D+00 0.741D+00
 Coeff-En:   0.379D+00 0.621D+00
 Coeff:      0.271D+00 0.729D+00
 Gap=     0.246 Goal=   None    Shift=    0.000
 RMSDP=1.37D-03 MaxDP=6.16D-02 DE=-5.05D-02 OVMax= 1.28D-01

 Cycle   3  Pass 1  IDiag  1:
 RMSU=  7.56D-04    CP:  9.92D-01  5.89D-01
 E= -538.121382387851     Delta-E=       -0.153054585379 Rises=F Damp=F
 DIIS: error= 5.38D-03 at cycle   3 NSaved=   3.
 NSaved= 3 IEnMin= 3 EnMin= -538.121382387851     IErMin= 3 ErrMin= 5.38D-03
 ErrMax= 5.38D-03  0.00D+00 EMaxC= 1.00D-01 BMatC= 1.32D-02 BMatP= 4.39D-02
 IDIUse=3 WtCom= 9.46D-01 WtEn= 5.38D-02
 Coeff-Com:  0.862D-01 0.366D+00 0.548D+00
 Coeff-En:   0.000D+00 0.000D+00 0.100D+01
 Coeff:      0.816D-01 0.346D+00 0.572D+00
 Gap=     0.222 Goal=   None    Shift=    0.000
 RMSDP=4.11D-04 MaxDP=8.96D-03 DE=-1.53D-01 OVMax= 2.10D-02

 Cycle   4  Pass 1  IDiag  1:
 RMSU=  3.00D-04    CP:  9.96D-01  6.27D-01  6.62D-01
 E= -538.129403386880     Delta-E=       -0.008020999029 Rises=F Damp=F
 DIIS: error= 3.10D-03 at cycle   4 NSaved=   4.
 NSaved= 4 IEnMin= 4 EnMin= -538.129403386880     IErMin= 4 ErrMin= 3.10D-03
 ErrMax= 3.10D-03  0.00D+00 EMaxC= 1.00D-01 BMatC= 3.50D-03 BMatP= 1.32D-02
 IDIUse=3 WtCom= 9.69D-01 WtEn= 3.10D-02
 Coeff-Com:  0.214D-01 0.104D+00 0.352D+00 0.522D+00
 Coeff-En:   0.000D+00 0.000D+00 0.227D+00 0.773D+00
 Coeff:      0.207D-01 0.101D+00 0.348D+00 0.530D+00
 Gap=     0.224 Goal=   None    Shift=    0.000
 RMSDP=1.45D-04 MaxDP=3.59D-03 DE=-8.02D-03 OVMax= 7.10D-03

 Cycle   5  Pass 1  IDiag  1:
 RMSU=  7.53D-05    CP:  9.95D-01  6.23D-01  7.39D-01  6.43D-01
 E= -538.132172004992     Delta-E=       -0.002768618112 Rises=F Damp=F
 DIIS: error= 4.62D-04 at cycle   5 NSaved=   5.
 NSaved= 5 IEnMin= 5 EnMin= -538.132172004992     IErMin= 5 ErrMin= 4.62D-04
 ErrMax= 4.62D-04  0.00D+00 EMaxC= 1.00D-01 BMatC= 8.14D-05 BMatP= 3.50D-03
 IDIUse=3 WtCom= 9.95D-01 WtEn= 4.62D-03
 Coeff-Com:  0.660D-02 0.268D-01 0.134D+00 0.237D+00 0.596D+00
 Coeff-En:   0.000D+00 0.000D+00 0.000D+00 0.000D+00 0.100D+01
 Coeff:      0.657D-02 0.267D-01 0.133D+00 0.236D+00 0.597D+00
 Gap=     0.222 Goal=   None    Shift=    0.000
 RMSDP=4.19D-05 MaxDP=1.30D-03 DE=-2.77D-03 OVMax= 2.06D-03

 Cycle   6  Pass 1  IDiag  1:
 RMSU=  3.25D-05    CP:  9.95D-01  6.22D-01  7.49D-01  6.50D-01  6.67D-01
 E= -538.132205273526     Delta-E=       -0.000033268534 Rises=F Damp=F
 DIIS: error= 3.28D-04 at cycle   6 NSaved=   6.
 NSaved= 6 IEnMin= 6 EnMin= -538.132205273526     IErMin= 6 ErrMin= 3.28D-04
 ErrMax= 3.28D-04  0.00D+00 EMaxC= 1.00D-01 BMatC= 3.36D-05 BMatP= 8.14D-05
 IDIUse=3 WtCom= 9.97D-01 WtEn= 3.28D-03
 Coeff-Com:  0.225D-02 0.559D-02 0.512D-01 0.101D+00 0.420D+00 0.420D+00
 Coeff-En:   0.000D+00 0.000D+00 0.000D+00 0.000D+00 0.308D+00 0.692D+00
 Coeff:      0.224D-02 0.557D-02 0.510D-01 0.100D+00 0.420D+00 0.421D+00
 Gap=     0.222 Goal=   None    Shift=    0.000
 RMSDP=1.98D-05 MaxDP=5.85D-04 DE=-3.33D-05 OVMax= 1.05D-03

 Cycle   7  Pass 1  IDiag  1:
 RMSU=  5.71D-06    CP:  9.95D-01  6.20D-01  7.46D-01  6.51D-01  7.36D-01
                    CP:  4.64D-01
 E= -538.132229132236     Delta-E=       -0.000023858711 Rises=F Damp=F
 DIIS: error= 2.57D-05 at cycle   7 NSaved=   7.
 NSaved= 7 IEnMin= 7 EnMin= -538.132229132236     IErMin= 7 ErrMin= 2.57D-05
 ErrMax= 2.57D-05  0.00D+00 EMaxC= 1.00D-01 BMatC= 3.48D-07 BMatP= 3.36D-05
 IDIUse=1 WtCom= 1.00D+00 WtEn= 0.00D+00
 Coeff-Com:  0.883D-03 0.147D-02 0.186D-01 0.366D-01 0.168D+00 0.191D+00
 Coeff-Com:  0.583D+00
 Coeff:      0.883D-03 0.147D-02 0.186D-01 0.366D-01 0.168D+00 0.191D+00
 Coeff:      0.583D+00
 Gap=     0.222 Goal=   None    Shift=    0.000
 RMSDP=2.39D-06 MaxDP=4.34D-05 DE=-2.39D-05 OVMax= 1.03D-04

 Cycle   8  Pass 1  IDiag  1:
 RMSU=  1.91D-06    CP:  9.95D-01  6.20D-01  7.46D-01  6.52D-01  7.40D-01
                    CP:  4.75D-01  7.71D-01
 E= -538.132229337331     Delta-E=       -0.000000205094 Rises=F Damp=F
 DIIS: error= 1.15D-05 at cycle   8 NSaved=   8.
 NSaved= 8 IEnMin= 8 EnMin= -538.132229337331     IErMin= 8 ErrMin= 1.15D-05
 ErrMax= 1.15D-05  0.00D+00 EMaxC= 1.00D-01 BMatC= 6.77D-08 BMatP= 3.48D-07
 IDIUse=1 WtCom= 1.00D+00 WtEn= 0.00D+00
 Coeff-Com:  0.255D-03 0.135D-03 0.435D-02 0.821D-02 0.424D-01 0.566D-01
 Coeff-Com:  0.338D+00 0.550D+00
 Coeff:      0.255D-03 0.135D-03 0.435D-02 0.821D-02 0.424D-01 0.566D-01
 Coeff:      0.338D+00 0.550D+00
 Gap=     0.222 Goal=   None    Shift=    0.000
 RMSDP=9.52D-07 MaxDP=1.75D-05 DE=-2.05D-07 OVMax= 4.06D-05

 Cycle   9  Pass 1  IDiag  1:
 RMSU=  5.44D-07    CP:  9.95D-01  6.20D-01  7.47D-01  6.52D-01  7.40D-01
                    CP:  4.81D-01  8.13D-01  6.50D-01
 E= -538.132229438987     Delta-E=       -0.000000101656 Rises=F Damp=F
 DIIS: error= 3.44D-06 at cycle   9 NSaved=   9.
 NSaved= 9 IEnMin= 9 EnMin= -538.132229438987     IErMin= 9 ErrMin= 3.44D-06
 ErrMax= 3.44D-06  0.00D+00 EMaxC= 1.00D-01 BMatC= 4.32D-09 BMatP= 6.77D-08
 IDIUse=1 WtCom= 1.00D+00 WtEn= 0.00D+00
 Coeff-Com:  0.486D-04-0.789D-04 0.402D-03 0.585D-03 0.496D-02 0.982D-02
 Coeff-Com:  0.110D+00 0.269D+00 0.606D+00
 Coeff:      0.486D-04-0.789D-04 0.402D-03 0.585D-03 0.496D-02 0.982D-02
 Coeff:      0.110D+00 0.269D+00 0.606D+00
 Gap=     0.222 Goal=   None    Shift=    0.000
 RMSDP=3.02D-07 MaxDP=9.45D-06 DE=-1.02D-07 OVMax= 1.38D-05

 Cycle  10  Pass 1  IDiag  1:
 RMSU=  1.98D-07    CP:  9.95D-01  6.20D-01  7.47D-01  6.52D-01  7.40D-01
                    CP:  4.81D-01  8.12D-01  7.21D-01  7.09D-01
 E= -538.132229441019     Delta-E=       -0.000000002032 Rises=F Damp=F
 DIIS: error= 2.32D-06 at cycle  10 NSaved=  10.
 NSaved=10 IEnMin=10 EnMin= -538.132229441019     IErMin=10 ErrMin= 2.32D-06
 ErrMax= 2.32D-06  0.00D+00 EMaxC= 1.00D-01 BMatC= 1.57D-09 BMatP= 4.32D-09
 IDIUse=1 WtCom= 1.00D+00 WtEn= 0.00D+00
 Coeff-Com:  0.975D-05-0.579D-04-0.114D-03-0.334D-03-0.690D-03 0.105D-02
 Coeff-Com:  0.388D-01 0.126D+00 0.424D+00 0.412D+00
 Coeff:      0.975D-05-0.579D-04-0.114D-03-0.334D-03-0.690D-03 0.105D-02
 Coeff:      0.388D-01 0.126D+00 0.424D+00 0.412D+00
 Gap=     0.222 Goal=   None    Shift=    0.000
 RMSDP=1.25D-07 MaxDP=3.64D-06 DE=-2.03D-09 OVMax= 5.15D-06

 Cycle  11  Pass 1  IDiag  1:
 RMSU=  4.83D-08    CP:  9.95D-01  6.20D-01  7.47D-01  6.52D-01  7.41D-01
                    CP:  4.81D-01  8.18D-01  7.08D-01  7.66D-01  4.92D-01
 E= -538.132229442160     Delta-E=       -0.000000001141 Rises=F Damp=F
 DIIS: error= 1.45D-07 at cycle  11 NSaved=  11.
 NSaved=11 IEnMin=11 EnMin= -538.132229442160     IErMin=11 ErrMin= 1.45D-07
 ErrMax= 1.45D-07  0.00D+00 EMaxC= 1.00D-01 BMatC= 1.44D-11 BMatP= 1.57D-09
 IDIUse=1 WtCom= 1.00D+00 WtEn= 0.00D+00
 Coeff-Com:  0.183D-05-0.185D-04-0.566D-04-0.139D-03-0.428D-03 0.277D-04
 Coeff-Com:  0.108D-01 0.378D-01 0.139D+00 0.162D+00 0.652D+00
 Coeff:      0.183D-05-0.185D-04-0.566D-04-0.139D-03-0.428D-03 0.277D-04
 Coeff:      0.108D-01 0.378D-01 0.139D+00 0.162D+00 0.652D+00
 Gap=     0.222 Goal=   None    Shift=    0.000
 RMSDP=1.62D-08 MaxDP=3.90D-07 DE=-1.14D-09 OVMax= 7.60D-07

 Cycle  12  Pass 1  IDiag  1:
 RMSU=  1.16D-08    CP:  9.95D-01  6.20D-01  7.47D-01  6.52D-01  7.41D-01
                    CP:  4.81D-01  8.18D-01  7.09D-01  7.66D-01  5.17D-01
                    CP:  8.25D-01
 E= -538.132229442168     Delta-E=       -0.000000000008 Rises=F Damp=F
 DIIS: error= 9.63D-08 at cycle  12 NSaved=  12.
 NSaved=12 IEnMin=12 EnMin= -538.132229442168     IErMin=12 ErrMin= 9.63D-08
 ErrMax= 9.63D-08  0.00D+00 EMaxC= 1.00D-01 BMatC= 4.75D-12 BMatP= 1.44D-11
 IDIUse=1 WtCom= 1.00D+00 WtEn= 0.00D+00
 Coeff-Com:  0.207D-06-0.520D-05-0.211D-04-0.469D-04-0.179D-03-0.816D-04
 Coeff-Com:  0.268D-02 0.105D-01 0.423D-01 0.581D-01 0.402D+00 0.485D+00
 Coeff:      0.207D-06-0.520D-05-0.211D-04-0.469D-04-0.179D-03-0.816D-04
 Coeff:      0.268D-02 0.105D-01 0.423D-01 0.581D-01 0.402D+00 0.485D+00
 Gap=     0.222 Goal=   None    Shift=    0.000
 RMSDP=6.06D-09 MaxDP=1.62D-07 DE=-8.19D-12 OVMax= 3.23D-07

 Error on total polarization charges =  0.01365
 SCF Done:  E(RB-P86) =  -538.132229442     A.U. after   12 cycles
            NFock= 12  Conv=0.61D-08     -V/T= 2.0044
 KE= 5.357483845654D+02 PE=-2.330131951423D+03 EE= 7.219349080161D+02
 Leave Link  502 at Mon Feb 22 21:30:28 2021, MaxMem=   104857600 cpu:             410.5 elap:              13.3
 (Enter /sw/arch/RedHatEnterpriseServer7/EB_production/2019/software/Gaussian/g16.c01/l601.exe)
 Copying SCF densities to generalized density rwf, IOpCl= 0 IROHF=0.

 **********************************************************************

            Population analysis using the SCF Density.

 **********************************************************************

 Orbital symmetries:
       Occupied  (A) (A) (A) (A) (A) (A) (A) (A) (A) (A) (A) (A)
                 (A) (A) (A) (A) (A) (A) (A) (A) (A) (A) (A) (A)
                 (A) (A) (A) (A) (A) (A) (A) (A) (A) (A) (A) (A)
                 (A) (A) (A) (A) (A)
       Virtual   (A) (A) (A) (A) (A) (A) (A) (A) (A) (A) (A) (A)
                 (A) (A) (A) (A) (A) (A) (A) (A) (A) (A) (A) (A)
                 (A) (A) (A) (A) (A) (A) (A) (A) (A) (A) (A) (A)
                 (A) (A) (A) (A) (A) (A) (A) (A) (A) (A) (A) (A)
                 (A) (A) (A) (A) (A) (A) (A) (A) (A) (A) (A) (A)
                 (A) (A) (A) (A) (A) (A) (A) (A) (A) (A) (A) (A)
                 (A) (A) (A) (A) (A) (A) (A) (A) (A) (A) (A) (A)
                 (A) (A) (A) (A) (A) (A) (A) (A) (A) (A) (A) (A)
                 (A) (A) (A) (A) (A) (A) (A) (A) (A) (A) (A) (A)
                 (A) (A) (A) (A) (A) (A) (A) (A) (A) (A) (A) (A)
                 (A) (A) (A) (A) (A) (A) (A) (A) (A) (A) (A) (A)
                 (A) (A) (A) (A) (A) (A) (A) (A) (A) (A) (A) (A)
                 (A) (A) (A) (A) (A) (A) (A) (A) (A) (A) (A) (A)
                 (A) (A) (A) (A) (A) (A) (A) (A) (A) (A) (A) (A)
                 (A) (A) (A) (A) (A) (A) (A) (A) (A) (A) (A) (A)
                 (A) (A) (A) (A) (A) (A) (A) (A) (A) (A) (A) (A)
                 (A) (A) (A) (A) (A) (A) (A) (A) (A) (A) (A) (A)
                 (A) (A) (A) (A) (A) (A) (A) (A) (A) (A) (A) (A)
                 (A) (A) (A) (A) (A) (A) (A) (A) (A) (A) (A) (A)
                 (A) (A) (A) (A) (A)
 The electronic state is 1-A.
 Alpha  occ. eigenvalues --  -18.78608 -18.78259 -18.77730 -18.77279  -9.94893
 Alpha  occ. eigenvalues --   -9.94868  -9.94812  -9.94803  -9.94546  -9.94511
 Alpha  occ. eigenvalues --   -0.95670  -0.95120  -0.94340  -0.93717  -0.71556
 Alpha  occ. eigenvalues --   -0.68288  -0.64250  -0.56707  -0.55181  -0.54867
 Alpha  occ. eigenvalues --   -0.48201  -0.47662  -0.45776  -0.45266  -0.43253
 Alpha  occ. eigenvalues --   -0.42513  -0.41160  -0.39977  -0.38306  -0.37953
 Alpha  occ. eigenvalues --   -0.35752  -0.34642  -0.32784  -0.31397  -0.29793
 Alpha  occ. eigenvalues --   -0.28718  -0.28326  -0.23681  -0.23525  -0.22838
 Alpha  occ. eigenvalues --   -0.22268
 Alpha virt. eigenvalues --   -0.00030   0.01322   0.02396   0.03446   0.04961
 Alpha virt. eigenvalues --    0.06347   0.06799   0.07212   0.08370   0.09147
 Alpha virt. eigenvalues --    0.09699   0.10623   0.10937   0.11483   0.11885
 Alpha virt. eigenvalues --    0.12465   0.12963   0.13233   0.13322   0.13835
 Alpha virt. eigenvalues --    0.15035   0.16587   0.18990   0.20192   0.22653
 Alpha virt. eigenvalues --    0.24647   0.25180   0.25370   0.26373   0.26700
 Alpha virt. eigenvalues --    0.28076   0.28660   0.28925   0.29918   0.30241
 Alpha virt. eigenvalues --    0.32387   0.33231   0.34234   0.36535   0.36815
 Alpha virt. eigenvalues --    0.37535   0.38537   0.38723   0.39142   0.39618
 Alpha virt. eigenvalues --    0.39999   0.40546   0.41219   0.41602   0.41865
 Alpha virt. eigenvalues --    0.42814   0.43625   0.44324   0.44370   0.45513
 Alpha virt. eigenvalues --    0.46488   0.46640   0.47723   0.47931   0.49450
 Alpha virt. eigenvalues --    0.50811   0.51468   0.53678   0.54991   0.59189
 Alpha virt. eigenvalues --    0.59611   0.64190   0.65957   0.68151   0.68400
 Alpha virt. eigenvalues --    0.71287   0.74983   0.78258   0.80551   0.83608
 Alpha virt. eigenvalues --    0.85721   0.86612   1.09887   1.10473   1.12590
 Alpha virt. eigenvalues --    1.13532   1.18110   1.19513   1.21209   1.21949
 Alpha virt. eigenvalues --    1.22084   1.22868   1.23360   1.23838   1.24353
 Alpha virt. eigenvalues --    1.24694   1.25797   1.25845   1.27888   1.28982
 Alpha virt. eigenvalues --    1.30803   1.33640   1.34018   1.34905   1.36320
 Alpha virt. eigenvalues --    1.37690   1.38635   1.39294   1.40285   1.41201
 Alpha virt. eigenvalues --    1.41929   1.43956   1.46032   1.49732   1.53817
 Alpha virt. eigenvalues --    1.55808   1.57411   1.60202   1.61475   1.61548
 Alpha virt. eigenvalues --    1.61829   1.63824   1.65367   1.68204   1.69264
 Alpha virt. eigenvalues --    1.69775   1.70855   1.71417   1.72487   1.72971
 Alpha virt. eigenvalues --    1.73438   1.74435   1.74689   1.75160   1.76248
 Alpha virt. eigenvalues --    1.78098   1.82855   1.86026   1.86998   1.87224
 Alpha virt. eigenvalues --    1.88692   1.91585   1.94674   1.98084   1.99052
 Alpha virt. eigenvalues --    2.02030   2.02713   2.03630   2.05806   2.06707
 Alpha virt. eigenvalues --    2.12974   2.17637   2.18529   2.19908   2.21568
 Alpha virt. eigenvalues --    2.23787   2.24223   2.26784   2.29501   2.36066
 Alpha virt. eigenvalues --    2.37386   2.39692   2.41004   2.43185   2.44254
 Alpha virt. eigenvalues --    2.44591   2.45576   2.46492   2.48895   2.49225
 Alpha virt. eigenvalues --    2.49854   2.50905   2.51424   2.52647   2.53218
 Alpha virt. eigenvalues --    2.53596   2.56732   2.58072   2.58613   2.59076
 Alpha virt. eigenvalues --    2.60154   2.65893   2.66333   2.67731   2.71737
 Alpha virt. eigenvalues --    2.77114   2.80120   2.82280   2.83332   2.84255
 Alpha virt. eigenvalues --    2.84545   2.85253   2.86382   2.90272   2.92181
 Alpha virt. eigenvalues --    2.93168   2.94297   2.95575   2.96358   2.97267
 Alpha virt. eigenvalues --    2.98242   2.98953   3.01455   3.04690   3.09402
 Alpha virt. eigenvalues --    3.10110   3.10964   3.13553   3.14353   3.16772
 Alpha virt. eigenvalues --    3.17137   3.25104   3.26592   3.27669   3.28686
 Alpha virt. eigenvalues --    3.29600   3.30135   3.31057   3.32207   3.42775
 Alpha virt. eigenvalues --    3.80973   3.81849   3.85039   3.85321   3.95105
 Alpha virt. eigenvalues --    4.00857   4.15887   4.16055  21.59378  21.61098
 Alpha virt. eigenvalues --   21.65047  21.70918  21.75632  21.77259  43.05761
 Alpha virt. eigenvalues --   43.06372  43.18542  43.19357
          Condensed to atoms (all electrons):
               1          2          3          4          5          6
     1  O    7.997698   0.268171  -0.084201   0.003449   0.000144   0.000005
     2  C    0.268171   5.020858   0.196732  -0.059921   0.013885  -0.001116
     3  C   -0.084201   0.196732   5.138270   0.251564  -0.077049   0.011125
     4  O    0.003449  -0.059921   0.251564   8.039635   0.256649  -0.064070
     5  C    0.000144   0.013885  -0.077049   0.256649   5.058136   0.240692
     6  C    0.000005  -0.001116   0.011125  -0.064070   0.240692   5.053362
     7  O    0.000000   0.000007   0.000324   0.003600  -0.066488   0.260122
     8  C    0.000000  -0.000004  -0.000025   0.000272   0.009229  -0.062863
     9  C   -0.000000  -0.000000  -0.000001   0.000014  -0.001428   0.006945
    10  O   -0.000000  -0.000000  -0.000000   0.000000  -0.000319   0.000357
    11  H    0.300708  -0.032384   0.012032  -0.000243  -0.000024  -0.000001
    12  H   -0.052470   0.401012  -0.041321   0.010135  -0.000148  -0.000101
    13  H   -0.052434   0.401109  -0.041373   0.010112  -0.000161  -0.000097
    14  H    0.013319  -0.028435   0.372488  -0.048085  -0.006296  -0.000005
    15  H    0.013336  -0.028235   0.372229  -0.048054  -0.006404  -0.000036
    16  H   -0.000007  -0.000023  -0.005643  -0.048960   0.382703  -0.035608
    17  H   -0.000007  -0.000080  -0.005683  -0.048726   0.380750  -0.032910
    18  H    0.000001  -0.000064  -0.000123   0.011886  -0.033701   0.379183
    19  H    0.000001  -0.000073  -0.000148   0.011854  -0.036600   0.382142
    20  H   -0.000000   0.000000   0.000005  -0.000009  -0.000270  -0.008234
    21  H   -0.000000   0.000000   0.000009  -0.000024   0.000040  -0.012920
    22  H    0.000000  -0.000000   0.000000   0.000000  -0.000019   0.000226
    23  H    0.000000   0.000000   0.000001   0.000001  -0.000112  -0.001969
    24  H   -0.000000   0.000000  -0.000000  -0.000000   0.000010   0.000110
               7          8          9         10         11         12
     1  O    0.000000   0.000000  -0.000000  -0.000000   0.300708  -0.052470
     2  C    0.000007  -0.000004  -0.000000  -0.000000  -0.032384   0.401012
     3  C    0.000324  -0.000025  -0.000001  -0.000000   0.012032  -0.041321
     4  O    0.003600   0.000272   0.000014   0.000000  -0.000243   0.010135
     5  C   -0.066488   0.009229  -0.001428  -0.000319  -0.000024  -0.000148
     6  C    0.260122  -0.062863   0.006945   0.000357  -0.000001  -0.000101
     7  O    8.045521   0.257915  -0.058514   0.001490   0.000000   0.000001
     8  C    0.257915   5.094355   0.212037  -0.087205   0.000000   0.000001
     9  C   -0.058514   0.212037   4.983000   0.296405   0.000000  -0.000000
    10  O    0.001490  -0.087205   0.296405   8.001744  -0.000000   0.000000
    11  H    0.000000   0.000000   0.000000  -0.000000   0.430535  -0.004993
    12  H    0.000001   0.000001  -0.000000   0.000000  -0.004993   0.636157
    13  H    0.000001   0.000001  -0.000000  -0.000000  -0.004989  -0.068715
    14  H   -0.000009   0.000006  -0.000000  -0.000000  -0.000675   0.016038
    15  H   -0.000007   0.000007   0.000000  -0.000000  -0.000674  -0.023277
    16  H    0.012293  -0.000049   0.000097   0.000005   0.000002  -0.000260
    17  H    0.012499  -0.000414   0.000024   0.000072   0.000002   0.000219
    18  H   -0.049021  -0.005649   0.000538  -0.000127   0.000000  -0.000001
    19  H   -0.049384  -0.005114  -0.000049   0.000036   0.000000   0.000062
    20  H   -0.048882   0.377372  -0.014505   0.005651   0.000000  -0.000000
    21  H   -0.055142   0.382760  -0.027716   0.001959  -0.000000   0.000000
    22  H    0.006260  -0.020856   0.386658  -0.055317  -0.000000   0.000000
    23  H   -0.000155  -0.050872   0.413758  -0.060116   0.000000   0.000000
    24  H   -0.000311   0.015502  -0.040166   0.300103   0.000000  -0.000000
              13         14         15         16         17         18
     1  O   -0.052434   0.013319   0.013336  -0.000007  -0.000007   0.000001
     2  C    0.401109  -0.028435  -0.028235  -0.000023  -0.000080  -0.000064
     3  C   -0.041373   0.372488   0.372229  -0.005643  -0.005683  -0.000123
     4  O    0.010112  -0.048085  -0.048054  -0.048960  -0.048726   0.011886
     5  C   -0.000161  -0.006296  -0.006404   0.382703   0.380750  -0.033701
     6  C   -0.000097  -0.000005  -0.000036  -0.035608  -0.032910   0.379183
     7  O    0.000001  -0.000009  -0.000007   0.012293   0.012499  -0.049021
     8  C    0.000001   0.000006   0.000007  -0.000049  -0.000414  -0.005649
     9  C   -0.000000  -0.000000   0.000000   0.000097   0.000024   0.000538
    10  O   -0.000000  -0.000000  -0.000000   0.000005   0.000072  -0.000127
    11  H   -0.004989  -0.000675  -0.000674   0.000002   0.000002   0.000000
    12  H   -0.068715   0.016038  -0.023277  -0.000260   0.000219  -0.000001
    13  H    0.636050  -0.023254   0.016044   0.000219  -0.000258   0.000062
    14  H   -0.023254   0.647446  -0.075490  -0.006189   0.016363  -0.000244
    15  H    0.016044  -0.075490   0.647721   0.016430  -0.006167   0.000225
    16  H    0.000219  -0.006189   0.016430   0.637827  -0.070969   0.015547
    17  H   -0.000258   0.016363  -0.006167  -0.070969   0.636869  -0.021762
    18  H    0.000062  -0.000244   0.000225   0.015547  -0.021762   0.641734
    19  H   -0.000001   0.000227  -0.000243  -0.021823   0.015502  -0.072001
    20  H    0.000000  -0.000002   0.000002  -0.000268   0.000260  -0.006276
    21  H   -0.000000   0.000002  -0.000002   0.000234  -0.000227   0.016402
    22  H   -0.000000  -0.000000  -0.000000   0.000009   0.000000   0.000130
    23  H    0.000000   0.000000  -0.000000   0.000113  -0.000022   0.000272
    24  H    0.000000   0.000000   0.000000  -0.000003   0.000001  -0.000014
              19         20         21         22         23         24
     1  O    0.000001  -0.000000  -0.000000   0.000000   0.000000  -0.000000
     2  C   -0.000073   0.000000   0.000000  -0.000000   0.000000   0.000000
     3  C   -0.000148   0.000005   0.000009   0.000000   0.000001  -0.000000
     4  O    0.011854  -0.000009  -0.000024   0.000000   0.000001  -0.000000
     5  C   -0.036600  -0.000270   0.000040  -0.000019  -0.000112   0.000010
     6  C    0.382142  -0.008234  -0.012920   0.000226  -0.001969   0.000110
     7  O   -0.049384  -0.048882  -0.055142   0.006260  -0.000155  -0.000311
     8  C   -0.005114   0.377372   0.382760  -0.020856  -0.050872   0.015502
     9  C   -0.000049  -0.014505  -0.027716   0.386658   0.413758  -0.040166
    10  O    0.000036   0.005651   0.001959  -0.055317  -0.060116   0.300103
    11  H    0.000000   0.000000  -0.000000  -0.000000   0.000000   0.000000
    12  H    0.000062  -0.000000   0.000000   0.000000   0.000000  -0.000000
    13  H   -0.000001   0.000000  -0.000000  -0.000000   0.000000   0.000000
    14  H    0.000227  -0.000002   0.000002  -0.000000   0.000000   0.000000
    15  H   -0.000243   0.000002  -0.000002  -0.000000  -0.000000   0.000000
    16  H   -0.021823  -0.000268   0.000234   0.000009   0.000113  -0.000003
    17  H    0.015502   0.000260  -0.000227   0.000000  -0.000022   0.000001
    18  H   -0.072001  -0.006276   0.016402   0.000130   0.000272  -0.000014
    19  H    0.643245   0.016347  -0.005736  -0.000022  -0.000351   0.000004
    20  H    0.016347   0.609019  -0.058222   0.003653  -0.008849  -0.000678
    21  H   -0.005736  -0.058222   0.626603  -0.008616   0.014043  -0.000422
    22  H   -0.000022   0.003653  -0.008616   0.617145  -0.058445  -0.005616
    23  H   -0.000351  -0.008849   0.014043  -0.058445   0.626087  -0.004685
    24  H    0.000004  -0.000678  -0.000422  -0.005616  -0.004685   0.441329
 Mulliken charges:
               1
     1  O   -0.407713
     2  C   -0.151440
     3  C   -0.099212
     4  O   -0.281080
     5  C   -0.113220
     6  C   -0.114339
     7  O   -0.272119
     8  C   -0.116405
     9  C   -0.157099
    10  O   -0.404739
    11  H    0.300703
    12  H    0.127660
    13  H    0.127684
    14  H    0.122794
    15  H    0.122593
    16  H    0.124326
    17  H    0.124665
    18  H    0.123003
    19  H    0.122124
    20  H    0.133888
    21  H    0.126976
    22  H    0.134810
    23  H    0.131301
    24  H    0.294837
 Sum of Mulliken charges =  -0.00000
 Mulliken charges with hydrogens summed into heavy atoms:
               1
     1  O   -0.107010
     2  C    0.103905
     3  C    0.146175
     4  O   -0.281080
     5  C    0.135770
     6  C    0.130789
     7  O   -0.272119
     8  C    0.144458
     9  C    0.109012
    10  O   -0.109901
 Electronic spatial extent (au):  <R**2>=           3705.6138
 Charge=             -0.0000 electrons
 Dipole moment (field-independent basis, Debye):
    X=             -1.4459    Y=             -2.5531    Z=              0.5788  Tot=              2.9907
 Quadrupole moment (field-independent basis, Debye-Ang):
   XX=            -36.0575   YY=            -62.5872   ZZ=            -62.9743
   XY=             -4.3072   XZ=             -8.4956   YZ=              0.9747
 Traceless Quadrupole moment (field-independent basis, Debye-Ang):
   XX=             17.8155   YY=             -8.7142   ZZ=             -9.1013
   XY=             -4.3072   XZ=             -8.4956   YZ=              0.9747
 Octapole moment (field-independent basis, Debye-Ang**2):
  XXX=            -57.2956  YYY=              3.7992  ZZZ=             -0.0702  XYY=            -13.9931
  XXY=            -44.1578  XXZ=             -1.0905  XZZ=              4.2620  YZZ=             -0.3725
  YYZ=              1.6042  XYZ=             -6.7581
 Hexadecapole moment (field-independent basis, Debye-Ang**3):
 XXXX=          -2843.0473 YYYY=           -237.5636 ZZZZ=           -123.4712 XXXY=           -429.6645
 XXXZ=           -256.8197 YYYX=            -33.7726 YYYZ=             -5.0795 ZZZX=             -4.5771
 ZZZY=              1.6096 XXYY=           -727.6655 XXZZ=           -756.9122 YYZZ=            -62.0233
 XXYZ=             23.8944 YYXZ=             -5.3083 ZZXY=             -1.4096
 N-N= 5.343164293995D+02 E-N=-2.330131948851D+03  KE= 5.357483845654D+02
 No NMR shielding tensors so no spin-rotation constants.
 Leave Link  601 at Mon Feb 22 21:30:28 2021, MaxMem=   104857600 cpu:               8.3 elap:               0.4
 (Enter /sw/arch/RedHatEnterpriseServer7/EB_production/2019/software/Gaussian/g16.c01/l701.exe)
 ... and contract with generalized density number  0.
 Compute integral first derivatives.
 R6Disp: Adding Grimme-D3 dispersion energy 1st derivatives to the gradient.
 PrsmSu:  requested number of processors reduced to:  29 ShMem   1 Linda.
 D1PCM: PCM CHGder 1st derivatives, ID1Alg=3 FixD1E=F DoIter=F DoCFld=F I1PDM=0.
 GePol: Maximum number of non-zero 1st derivatives   =     203
 CoulSu:  requested number of processors reduced to:  28 ShMem   1 Linda.
 CoulSu:  requested number of processors reduced to:  29 ShMem   1 Linda.
 Leave Link  701 at Mon Feb 22 21:30:29 2021, MaxMem=   104857600 cpu:              25.0 elap:               0.8
 (Enter /sw/arch/RedHatEnterpriseServer7/EB_production/2019/software/Gaussian/g16.c01/l702.exe)
 L702 exits ... SP integral derivatives will be done elsewhere.
 Leave Link  702 at Mon Feb 22 21:30:29 2021, MaxMem=   104857600 cpu:               0.6 elap:               0.0
 (Enter /sw/arch/RedHatEnterpriseServer7/EB_production/2019/software/Gaussian/g16.c01/l703.exe)
 Integral derivatives from FoFJK, PRISM(SPDF).
 Compute integral first derivatives, UseDBF=F ICtDFT=           0.
 Calling FoFJK, ICntrl=      2527 FMM=F ISym2X=0 I1Cent= 0 IOpClX= 0 NMat=1 NMatS=1 NMatT=0.
 FoFJK:  IHMeth= 1 ICntrl=    2527 DoSepK=F KAlg= 0 I1Cent=           0 FoldK=F
 IRaf=         0 NMat=       1 IRICut=       1 DoRegI=T DoRafI=F ISym2E= 0 IDoP0=0 IntGTp=1.
 FoFCou: FMM=F IPFlag=           0 FMFlag=      100000 FMFlg1=         800
         NFxFlg=           0 DoJE=F BraDBF=F KetDBF=F FulRan=T
         wScrn=  0.000000 ICntrl=      2527 IOpCl=  0 I1Cent=           0 NGrid=           0
         NMat0=    1 NMatS0=      1 NMatT0=    0 NMatD0=    1 NMtDS0=    0 NMtDT0=    0
 Symmetry not used in FoFCou.
 Leave Link  703 at Mon Feb 22 21:30:31 2021, MaxMem=   104857600 cpu:              58.0 elap:               1.9
 (Enter /sw/arch/RedHatEnterpriseServer7/EB_production/2019/software/Gaussian/g16.c01/l716.exe)
 Dipole        =-5.68879370D-01-1.00446532D+00 2.27734132D-01
 ***** Axes restored to original set *****
 -------------------------------------------------------------------
 Center     Atomic                   Forces (Hartrees/Bohr)
 Number     Number              X              Y              Z
 -------------------------------------------------------------------
      1        8           0.004355650   -0.002697944   -0.010509345
      2        6          -0.001239348    0.004572605    0.009615769
      3        6          -0.005722299   -0.004113604    0.000471303
      4        8          -0.005368980   -0.002298566    0.003282106
      5        6          -0.003409518   -0.001093515    0.002675421
      6        6           0.003549257    0.001317128   -0.002745420
      7        8           0.004025481   -0.000925895   -0.005427945
      8        6           0.011540033    0.010950367   -0.003575450
      9        6          -0.004749076   -0.010419055   -0.008375024
     10        8           0.001971569    0.012880482   -0.003840848
     11        1           0.006044477    0.004463023   -0.000282848
     12        1          -0.001481445   -0.004128692    0.009300954
     13        1          -0.008130667    0.004574536    0.004308175
     14        1           0.001782524    0.007035795   -0.004202224
     15        1           0.008233651   -0.001405599    0.000649362
     16        1           0.007825295   -0.001870219   -0.000262546
     17        1           0.001693082    0.006140426   -0.004791604
     18        1          -0.008006174    0.001631069    0.000253507
     19        1          -0.001920509   -0.006460492    0.004730993
     20        1          -0.000850379   -0.006226973    0.005528250
     21        1          -0.008110617    0.001735377   -0.002199378
     22        1          -0.005025265   -0.005263458    0.009024122
     23        1           0.007186365   -0.007299454    0.002383755
     24        1          -0.004193107   -0.001097341   -0.006011086
 -------------------------------------------------------------------
 Cartesian Forces:  Max     0.012880482 RMS     0.005529457
 Leave Link  716 at Mon Feb 22 21:30:31 2021, MaxMem=   104857600 cpu:               1.1 elap:               0.1
 (Enter /sw/arch/RedHatEnterpriseServer7/EB_production/2019/software/Gaussian/g16.c01/l103.exe)

 GradGradGradGradGradGradGradGradGradGradGradGradGradGradGradGradGradGrad
 Berny optimization.
 FormGI is forming the generalized inverse of G from B-inverse, IUseBI=4.
 GSVD:  received Info=                   1 from GESDD.
 Internal  Forces:  Max     0.015234066 RMS     0.005769157
 Search for a local minimum.
 Step number   1 out of a maximum of  118
 All quantities printed in internal units (Hartrees-Bohrs-Radians)
 RMS Force = .57692D-02 SwitMx=.10000D-02 MixMth= 1
 Mixed Optimization -- RFO/linear search
 Second derivative matrix not updated -- first step.
 ITU=  0
     Eigenvalues ---    0.00230   0.00240   0.00242   0.01143   0.01160
     Eigenvalues ---    0.01162   0.01164   0.01373   0.01374   0.04974
     Eigenvalues ---    0.05050   0.05120   0.05122   0.05140   0.05167
     Eigenvalues ---    0.05741   0.05744   0.05936   0.05939   0.05940
     Eigenvalues ---    0.05943   0.11051   0.11051   0.11084   0.11091
     Eigenvalues ---    0.11398   0.11455   0.13654   0.13663   0.13681
     Eigenvalues ---    0.13685   0.13776   0.13822   0.16000   0.16000
     Eigenvalues ---    0.22052   0.22054   0.22060   0.22062   0.22065
     Eigenvalues ---    0.22069   0.25000   0.25000   0.28459   0.28542
     Eigenvalues ---    0.28551   0.34360   0.34364   0.34365   0.34368
     Eigenvalues ---    0.34374   0.34394   0.34394   0.34431   0.34582
     Eigenvalues ---    0.34583   0.34594   0.34648   0.39385   0.39558
     Eigenvalues ---    0.39578   0.39600   0.41851   0.41856   0.51343
     Eigenvalues ---    0.51359
 RFO step:  Lambda=-1.34590076D-02 EMin= 2.30000000D-03
 Linear search not attempted -- first point.
 Iteration  1 RMS(Cart)=  0.08147548 RMS(Int)=  0.00117934
 Iteration  2 RMS(Cart)=  0.00152449 RMS(Int)=  0.00042329
 Iteration  3 RMS(Cart)=  0.00000141 RMS(Int)=  0.00042328
 Iteration  4 RMS(Cart)=  0.00000000 RMS(Int)=  0.00042328
 ITry= 1 IFail=0 DXMaxC= 2.83D-01 DCOld= 1.00D+10 DXMaxT= 3.00D-01 DXLimC= 3.00D+00 Rises=F
 Variable       Old X    -DE/DX   Delta X   Delta X   Delta X     New X
                                 (Linear)    (Quad)   (Total)
    R1        2.69107   0.01317   0.00000   0.03049   0.03049   2.72156
    R2        1.85218  -0.00672   0.00000  -0.01274  -0.01274   1.83943
    R3        2.90950  -0.00993   0.00000  -0.03321  -0.03321   2.87629
    R4        2.06359   0.00868   0.00000   0.02415   0.02415   2.08773
    R5        2.06357   0.00867   0.00000   0.02414   0.02414   2.08771
    R6        2.72159  -0.00880   0.00000  -0.02151  -0.02151   2.70008
    R7        2.06670   0.00821   0.00000   0.02297   0.02297   2.08968
    R8        2.06670   0.00820   0.00000   0.02295   0.02295   2.08964
    R9        2.72398  -0.00969   0.00000  -0.02380  -0.02380   2.70018
   R10        2.90968  -0.00862   0.00000  -0.02885  -0.02885   2.88083
   R11        2.06714   0.00786   0.00000   0.02201   0.02201   2.08915
   R12        2.06727   0.00778   0.00000   0.02179   0.02179   2.08906
   R13        2.72100  -0.00918   0.00000  -0.02243  -0.02243   2.69857
   R14        2.06719   0.00795   0.00000   0.02226   0.02226   2.08946
   R15        2.06721   0.00803   0.00000   0.02250   0.02250   2.08971
   R16        2.72131  -0.00665   0.00000  -0.01625  -0.01625   2.70506
   R17        2.91146  -0.01347   0.00000  -0.04520  -0.04520   2.86626
   R18        2.06610   0.00830   0.00000   0.02321   0.02321   2.08931
   R19        2.06703   0.00835   0.00000   0.02337   0.02337   2.09040
   R20        2.69113   0.01523   0.00000   0.03527   0.03527   2.72640
   R21        2.06340   0.00872   0.00000   0.02425   0.02425   2.08765
   R22        2.06250   0.00949   0.00000   0.02637   0.02637   2.08888
   R23        1.85234  -0.00617   0.00000  -0.01170  -0.01170   1.84064
    A1        1.83707   0.00624   0.00000   0.03598   0.03598   1.87305
    A2        1.92175  -0.01507   0.00000  -0.06304  -0.06288   1.85888
    A3        1.90184   0.00836   0.00000   0.05079   0.04970   1.95154
    A4        1.90188   0.00836   0.00000   0.05081   0.04973   1.95161
    A5        1.91843  -0.00006   0.00000  -0.01579  -0.01532   1.90311
    A6        1.91853  -0.00005   0.00000  -0.01571  -0.01525   1.90328
    A7        1.90112  -0.00126   0.00000  -0.00533  -0.00677   1.89435
    A8        1.91206  -0.01080   0.00000  -0.04722  -0.04710   1.86497
    A9        1.89717   0.00374   0.00000   0.01878   0.01867   1.91584
   A10        1.89695   0.00375   0.00000   0.01879   0.01868   1.91563
   A11        1.92615   0.00284   0.00000   0.00830   0.00845   1.93460
   A12        1.92612   0.00282   0.00000   0.00804   0.00819   1.93431
   A13        1.90488  -0.00228   0.00000  -0.00618  -0.00649   1.89840
   A14        1.99115  -0.01245   0.00000  -0.04727  -0.04727   1.94388
   A15        1.91146  -0.01191   0.00000  -0.05236  -0.05222   1.85924
   A16        1.92654   0.00310   0.00000   0.00853   0.00869   1.93522
   A17        1.92634   0.00315   0.00000   0.00919   0.00936   1.93570
   A18        1.89777   0.00407   0.00000   0.02022   0.02007   1.91784
   A19        1.89731   0.00407   0.00000   0.02044   0.02030   1.91761
   A20        1.90394  -0.00240   0.00000  -0.00543  -0.00579   1.89814
   A21        1.90470  -0.01118   0.00000  -0.04861  -0.04847   1.85623
   A22        1.89822   0.00391   0.00000   0.01972   0.01964   1.91786
   A23        1.89988   0.00367   0.00000   0.01771   0.01760   1.91748
   A24        1.92678   0.00301   0.00000   0.00978   0.00995   1.93674
   A25        1.92783   0.00309   0.00000   0.00963   0.00975   1.93758
   A26        1.90598  -0.00246   0.00000  -0.00785  -0.00814   1.89783
   A27        1.99933  -0.01370   0.00000  -0.05198  -0.05198   1.94735
   A28        1.90619  -0.00186   0.00000  -0.00794  -0.00795   1.89824
   A29        1.92649   0.00063   0.00000  -0.00126  -0.00131   1.92518
   A30        1.93331  -0.00030   0.00000  -0.00154  -0.00152   1.93179
   A31        1.89594  -0.00028   0.00000  -0.00427  -0.00430   1.89164
   A32        1.90069   0.00255   0.00000   0.01850   0.01851   1.91920
   A33        1.90066  -0.00070   0.00000  -0.00323  -0.00324   1.89742
   A34        1.93258  -0.00660   0.00000  -0.02523  -0.02506   1.90752
   A35        1.91584  -0.00488   0.00000  -0.04660  -0.04673   1.86911
   A36        1.91616  -0.00097   0.00000  -0.01448  -0.01449   1.90167
   A37        1.89810   0.00675   0.00000   0.04460   0.04367   1.94177
   A38        1.90280   0.00559   0.00000   0.04646   0.04609   1.94889
   A39        1.89790   0.00037   0.00000  -0.00329  -0.00510   1.89280
   A40        1.83293   0.00762   0.00000   0.04393   0.04393   1.87686
    D1        3.14151  -0.00000   0.00000   0.00000   0.00000   3.14151
    D2        1.03617   0.00410   0.00000   0.02633   0.02806   1.06423
    D3       -1.03620  -0.00409   0.00000  -0.02621  -0.02795  -1.06415
    D4       -3.14136   0.00001   0.00000   0.00031   0.00031  -3.14105
    D5        1.03583   0.00077   0.00000   0.00718   0.00730   1.04314
    D6       -1.03554  -0.00077   0.00000  -0.00685  -0.00698  -1.04252
    D7       -1.04603   0.00082   0.00000   0.01343   0.01361  -1.03242
    D8        3.13117   0.00158   0.00000   0.02030   0.02060  -3.13142
    D9        1.05979   0.00004   0.00000   0.00627   0.00632   1.06612
   D10        1.04639  -0.00080   0.00000  -0.01288  -0.01306   1.03333
   D11       -1.05961  -0.00005   0.00000  -0.00601  -0.00606  -1.06567
   D12       -3.13098  -0.00158   0.00000  -0.02004  -0.02034   3.13186
   D13        3.14055  -0.00001   0.00000  -0.00024  -0.00023   3.14031
   D14       -1.05434  -0.00042   0.00000  -0.00163  -0.00160  -1.05594
   D15        1.05254   0.00041   0.00000   0.00129   0.00126   1.05380
   D16       -3.14048   0.00002   0.00000   0.00054   0.00053  -3.13995
   D17       -1.05159  -0.00054   0.00000  -0.00220  -0.00215  -1.05374
   D18        1.05450   0.00054   0.00000   0.00257   0.00253   1.05704
   D19        3.13999  -0.00005   0.00000  -0.00105  -0.00104   3.13896
   D20       -1.04022  -0.00072   0.00000  -0.00637  -0.00649  -1.04672
   D21        1.03475   0.00069   0.00000   0.00577   0.00589   1.04064
   D22        1.03353   0.00087   0.00000   0.00779   0.00796   1.04149
   D23        3.13650   0.00020   0.00000   0.00248   0.00250   3.13900
   D24       -1.07171   0.00161   0.00000   0.01462   0.01488  -1.05683
   D25       -1.03725  -0.00091   0.00000  -0.00893  -0.00907  -1.04631
   D26        1.06572  -0.00157   0.00000  -0.01424  -0.01452   1.05120
   D27        3.14069  -0.00016   0.00000  -0.00210  -0.00214   3.13855
   D28        3.13426   0.00014   0.00000   0.00298   0.00298   3.13724
   D29        1.04890   0.00047   0.00000   0.00310   0.00309   1.05199
   D30       -1.06088  -0.00045   0.00000   0.00019   0.00020  -1.06068
   D31       -3.12684  -0.00105   0.00000  -0.01255  -0.01254  -3.13938
   D32        1.07304   0.00007   0.00000  -0.00160  -0.00161   1.07143
   D33       -1.03348   0.00073   0.00000   0.00431   0.00431  -1.02917
   D34        1.05756   0.00118   0.00000   0.05262   0.05242   1.10998
   D35       -3.12974   0.00223   0.00000   0.06197   0.06191  -3.06783
   D36       -1.04438  -0.00093   0.00000   0.02028   0.02049  -1.02388
   D37       -3.12349   0.00067   0.00000   0.04379   0.04361  -3.07988
   D38       -1.02762   0.00172   0.00000   0.05314   0.05311  -0.97451
   D39        1.05775  -0.00144   0.00000   0.01145   0.01169   1.06944
   D40       -1.05576   0.00112   0.00000   0.04799   0.04782  -1.00795
   D41        1.04011   0.00217   0.00000   0.05735   0.05731   1.09742
   D42        3.12548  -0.00099   0.00000   0.01566   0.01590   3.14138
   D43        3.12464  -0.00140   0.00000  -0.01544  -0.01563   3.10902
   D44        1.01820   0.00439   0.00000   0.02916   0.03041   1.04861
   D45       -1.04866  -0.00314   0.00000  -0.01917  -0.02023  -1.06889
         Item               Value     Threshold  Converged?
 Maximum Force            0.015234     0.000450     NO 
 RMS     Force            0.005769     0.000300     NO 
 Maximum Displacement     0.282692     0.001800     NO 
 RMS     Displacement     0.082175     0.001200     NO 
 Predicted change in Energy=-7.247368D-03
 Lowest energy point so far.  Saving SCF results.
 GradGradGradGradGradGradGradGradGradGradGradGradGradGradGradGradGradGrad

 Leave Link  103 at Mon Feb 22 21:30:32 2021, MaxMem=   104857600 cpu:               5.4 elap:               0.2
 (Enter /sw/arch/RedHatEnterpriseServer7/EB_production/2019/software/Gaussian/g16.c01/l202.exe)
                          Input orientation:                          
 ---------------------------------------------------------------------
 Center     Atomic      Atomic             Coordinates (Angstroms)
 Number     Number       Type             X           Y           Z
 ---------------------------------------------------------------------
      1          8           0       -0.190267   -0.623880   -1.999075
      2          6           0       -0.762401   -0.312117   -0.714706
      3          6           0        0.143557    0.733397   -0.080023
      4          8           0       -0.417223    1.047832    1.195980
      5          6           0        0.365036    2.027501    1.881542
      6          6           0       -0.325407    2.276240    3.217739
      7          8           0        0.461075    3.252835    3.901081
      8          6           0       -0.095622    3.576250    5.179580
      9          6           0        0.784353    4.616642    5.845754
     10          8           0        0.767611    5.827701    5.061806
     11          1           0       -0.761397   -1.292798   -2.416019
     12          1           0       -0.804351   -1.199305   -0.057682
     13          1           0       -1.781642    0.103492   -0.809193
     14          1           0        0.185902    1.631776   -0.723402
     15          1           0        1.165568    0.325591    0.029356
     16          1           0        1.393960    1.661019    2.052441
     17          1           0        0.414291    2.968317    1.303156
     18          1           0       -1.353578    2.645311    3.046834
     19          1           0       -0.377406    1.334403    3.794880
     20          1           0       -0.123192    2.678462    5.824247
     21          1           0       -1.124943    3.966363    5.070149
     22          1           0        0.374871    4.788656    6.857278
     23          1           0        1.807298    4.210163    5.946931
     24          1           0        1.314808    6.485841    5.526725
 ---------------------------------------------------------------------
                    Distance matrix (angstroms):
                    1          2          3          4          5
     1  O    0.000000
     2  C    1.440187   0.000000
     3  C    2.374111   1.522065   0.000000
     4  O    3.613102   2.370512   1.428820   0.000000
     5  C    4.732587   3.672252   2.360402   1.428873   0.000000
     6  C    5.970269   4.728074   3.670903   2.367473   1.524470
     7  O    7.089783   5.959134   4.722031   3.598753   2.364150
     8  C    8.317641   7.092715   5.983515   4.729207   3.672586
     9  C    9.484425   8.350135   7.113722   5.983360   4.753363
    10  O    9.612309   8.567754   7.264970   6.260639   4.971686
    11  H    0.973387   1.963721   3.222000   4.317816   5.546374
    12  H    2.115944   1.104781   2.152757   2.602145   3.942122
    13  H    2.115978   1.104768   2.152873   2.602717   3.943361
    14  H    2.618555   2.162886   1.105809   2.094940   2.640913
    15  H    2.618076   2.162721   1.105792   2.094723   2.639685
    16  H    4.913790   4.024956   2.640340   2.095211   1.105532
    17  H    4.916717   4.027111   2.642224   2.095510   1.105482
    18  H    6.123896   4.821313   3.959048   2.618084   2.166386
    19  H    6.118808   4.816183   3.955690   2.614955   2.166210
    20  H    8.492016   7.218730   6.222125   4.915920   4.025797
    21  H    8.480442   7.204261   6.211717   4.901824   4.018263
    22  H   10.394706   9.200338   8.038953   6.831652   5.690520
    23  H    9.513005   8.451733   7.154028   6.125387   4.834410
    24  H   10.461886   9.459519   8.117762   7.164303   5.836628
                    6          7          8          9         10
     6  C    0.000000
     7  O    1.428023   0.000000
     8  C    2.364666   1.431457   0.000000
     9  C    3.689920   2.397129   1.516760   0.000000
[...]
    2      C2      12.86  -0.013   -0.26    1.51   -0.64
    3      C3       9.99  -0.005   -0.07    1.17   -0.44
    4      O4       9.47   0.138   -1.82    1.18   -0.63
    5      C5      10.04  -0.007   -0.05    1.18   -0.46
    6      C6      10.04  -0.006   -0.08    1.18   -0.46
    7      O7       9.51   0.145   -2.72    1.18   -0.53
    8      C8       9.97  -0.012   -0.21    1.17   -0.48
    9      C9      12.78  -0.019   -0.42    1.50   -0.67
   10      O10     16.24   0.202   -3.94    2.02   -1.42
   11      H11      8.55  -0.128   -2.14    1.21   -0.94
   12      H12      6.60  -0.030   -0.14    0.93   -0.84
   13      H13      6.60  -0.030   -0.13    0.93   -0.84
   14      H14      6.63  -0.028   -0.05    0.94   -0.76
   15      H15      6.63  -0.028   -0.07    0.94   -0.76
   16      H16      6.62  -0.029   -0.08    0.93   -0.79
   17      H17      6.62  -0.029   -0.02    0.93   -0.78
   18      H18      6.63  -0.028   -0.06    0.94   -0.79
   19      H19      6.63  -0.029   -0.13    0.94   -0.78
   20      H20      6.64  -0.033   -0.30    0.94   -0.78
   21      H21      6.63  -0.030   -0.09    0.94   -0.72
   22      H22      6.61  -0.035   -0.35    0.93   -0.84
   23      H23      6.61  -0.032   -0.17    0.93   -0.83
   24      H24      8.56  -0.126   -1.97    1.21   -0.95
 --------------------------------------------------------------------
 - cavitation energy not included in the total energy.
 - dispersion energy not included in the total energy.
 - repulsion  energy not included in the total energy.
 After PCM corrections, the energy is  -538.129895805     a.u.
 --------------------------------------------------------------------
 Writing COSMO formatted file "ZIBGPFATKBEMQZ-UHFFFAOYSA-N.cosmo"
 Recomputed dielectric energy= -0.029180 old= -0.028990 diff=-1.90D-04

 **********************************************************************

            Population analysis using the SCF Density.

 **********************************************************************

 Orbital symmetries:
       Occupied  (A) (A) (A) (A) (A) (A) (A) (A) (A) (A) (A) (A)
                 (A) (A) (A) (A) (A) (A) (A) (A) (A) (A) (A) (A)
                 (A) (A) (A) (A) (A) (A) (A) (A) (A) (A) (A) (A)
                 (A) (A) (A) (A) (A)
       Virtual   (A) (A) (A) (A) (A) (A) (A) (A) (A) (A) (A) (A)
                 (A) (A) (A) (A) (A) (A) (A) (A) (A) (A) (A) (A)
                 (A) (A) (A) (A) (A) (A) (A) (A) (A) (A) (A) (A)
                 (A) (A) (A) (A) (A) (A) (A) (A) (A) (A) (A) (A)
                 (A) (A) (A) (A) (A) (A) (A) (A) (A) (A) (A) (A)
                 (A) (A) (A) (A) (A) (A) (A) (A) (A) (A) (A) (A)
                 (A) (A) (A) (A) (A) (A) (A) (A) (A) (A) (A) (A)
                 (A) (A) (A) (A) (A) (A) (A) (A) (A) (A) (A) (A)
                 (A) (A) (A) (A) (A) (A) (A) (A) (A) (A) (A) (A)
                 (A) (A) (A) (A) (A) (A) (A) (A) (A) (A) (A) (A)
                 (A) (A) (A) (A) (A) (A) (A) (A) (A) (A) (A) (A)
                 (A) (A) (A) (A) (A) (A) (A) (A) (A) (A) (A) (A)
                 (A) (A) (A) (A) (A) (A) (A) (A) (A) (A) (A) (A)
                 (A) (A) (A) (A) (A) (A) (A) (A) (A) (A) (A) (A)
                 (A) (A) (A) (A) (A) (A) (A) (A) (A) (A) (A) (A)
                 (A) (A) (A) (A) (A) (A) (A) (A) (A) (A) (A) (A)
                 (A) (A) (A) (A) (A) (A) (A) (A) (A) (A) (A) (A)
                 (A) (A) (A) (A) (A) (A) (A) (A) (A) (A) (A) (A)
                 (A) (A) (A) (A) (A) (A) (A) (A) (A) (A) (A) (A)
                 (A) (A) (A) (A) (A)
 The electronic state is 1-A.
 Alpha  occ. eigenvalues --  -18.78511 -18.78264 -18.77506 -18.77204  -9.94463
 Alpha  occ. eigenvalues --   -9.94405  -9.94398  -9.94389  -9.94354  -9.94340
 Alpha  occ. eigenvalues --   -0.96135  -0.95379  -0.93728  -0.93300  -0.71520
 Alpha  occ. eigenvalues --   -0.68283  -0.63931  -0.55940  -0.54921  -0.54301
 Alpha  occ. eigenvalues --   -0.48052  -0.47533  -0.45453  -0.44996  -0.42605
 Alpha  occ. eigenvalues --   -0.42140  -0.41050  -0.38895  -0.37899  -0.37260
 Alpha  occ. eigenvalues --   -0.34876  -0.34103  -0.31738  -0.31327  -0.29596
 Alpha  occ. eigenvalues --   -0.28998  -0.28882  -0.23863  -0.23789  -0.22746
 Alpha  occ. eigenvalues --   -0.22073
 Alpha virt. eigenvalues --    0.00800   0.02162   0.02841   0.03849   0.05481
 Alpha virt. eigenvalues --    0.06428   0.06928   0.07524   0.08487   0.09317
 Alpha virt. eigenvalues --    0.10078   0.10925   0.11227   0.11709   0.12197
 Alpha virt. eigenvalues --    0.13080   0.13147   0.13420   0.14031   0.14283
 Alpha virt. eigenvalues --    0.16067   0.17370   0.19389   0.20681   0.23544
 Alpha virt. eigenvalues --    0.24747   0.25642   0.25998   0.26736   0.27193
 Alpha virt. eigenvalues --    0.28813   0.28922   0.29164   0.30486   0.31125
 Alpha virt. eigenvalues --    0.32878   0.34315   0.34693   0.37177   0.37305
 Alpha virt. eigenvalues --    0.37648   0.38674   0.39011   0.39164   0.39606
 Alpha virt. eigenvalues --    0.40366   0.40922   0.41463   0.41724   0.42600
 Alpha virt. eigenvalues --    0.42936   0.43904   0.44567   0.45033   0.45432
 Alpha virt. eigenvalues --    0.46737   0.46972   0.47832   0.48425   0.50156
 Alpha virt. eigenvalues --    0.50663   0.52142   0.54082   0.55757   0.59303
 Alpha virt. eigenvalues --    0.60965   0.64448   0.64966   0.68446   0.69544
 Alpha virt. eigenvalues --    0.69890   0.75412   0.78033   0.81026   0.85258
 Alpha virt. eigenvalues --    0.86228   0.86852   1.10431   1.11437   1.12692
 Alpha virt. eigenvalues --    1.13650   1.18816   1.19314   1.20922   1.21836
 Alpha virt. eigenvalues --    1.21905   1.22488   1.23917   1.24762   1.25180
 Alpha virt. eigenvalues --    1.26015   1.26580   1.26694   1.28734   1.29489
 Alpha virt. eigenvalues --    1.31268   1.34069   1.34649   1.35889   1.37015
 Alpha virt. eigenvalues --    1.38394   1.39505   1.40129   1.41109   1.41956
 Alpha virt. eigenvalues --    1.42932   1.44278   1.46722   1.50303   1.54763
 Alpha virt. eigenvalues --    1.56811   1.57737   1.60093   1.60197   1.61857
 Alpha virt. eigenvalues --    1.62199   1.63566   1.65146   1.67746   1.68681
 Alpha virt. eigenvalues --    1.69105   1.70398   1.71092   1.71758   1.72276
 Alpha virt. eigenvalues --    1.73449   1.74009   1.74718   1.75715   1.76779
 Alpha virt. eigenvalues --    1.79324   1.83423   1.86004   1.86440   1.88158
 Alpha virt. eigenvalues --    1.88285   1.93989   1.96344   1.99914   2.00802
 Alpha virt. eigenvalues --    2.02474   2.03741   2.04776   2.05956   2.07398
 Alpha virt. eigenvalues --    2.15432   2.16748   2.18453   2.20452   2.21887
 Alpha virt. eigenvalues --    2.25248   2.25922   2.28038   2.30560   2.35109
 Alpha virt. eigenvalues --    2.36207   2.38901   2.40226   2.42289   2.44713
 Alpha virt. eigenvalues --    2.44863   2.46525   2.47988   2.48228   2.48629
 Alpha virt. eigenvalues --    2.49395   2.51182   2.51796   2.52631   2.53487
 Alpha virt. eigenvalues --    2.53954   2.56793   2.58436   2.58708   2.59243
 Alpha virt. eigenvalues --    2.61041   2.65374   2.66123   2.67897   2.71542
 Alpha virt. eigenvalues --    2.78055   2.80825   2.82574   2.83057   2.84048
 Alpha virt. eigenvalues --    2.84872   2.85540   2.86633   2.89971   2.90994
 Alpha virt. eigenvalues --    2.92228   2.93754   2.95466   2.96394   2.97524
 Alpha virt. eigenvalues --    2.98786   2.99144   3.01035   3.04568   3.07952
 Alpha virt. eigenvalues --    3.09395   3.10843   3.13992   3.15917   3.17593
 Alpha virt. eigenvalues --    3.17877   3.23874   3.24059   3.25694   3.26416
 Alpha virt. eigenvalues --    3.27278   3.29199   3.30367   3.33347   3.44721
 Alpha virt. eigenvalues --    3.80698   3.82548   3.84098   3.84772   3.97150
 Alpha virt. eigenvalues --    4.04116   4.17589   4.17657  21.56362  21.58852
 Alpha virt. eigenvalues --   21.63856  21.71459  21.75236  21.77365  43.04096
 Alpha virt. eigenvalues --   43.05669  43.19577  43.20564
          Condensed to atoms (all electrons):
               1          2          3          4          5          6
     1  O    8.020829   0.274894  -0.095184   0.004318   0.000287   0.000007
     2  C    0.274894   5.005382   0.202056  -0.065904   0.014992  -0.001459
     3  C   -0.095184   0.202056   5.178216   0.236496  -0.086128   0.011352
     4  O    0.004318  -0.065904   0.236496   8.070555   0.248704  -0.070372
     5  C    0.000287   0.014992  -0.086128   0.248704   5.069616   0.249777
     6  C    0.000007  -0.001459   0.011352  -0.070372   0.249777   5.074824
     7  O    0.000000   0.000012   0.000451   0.004423  -0.070562   0.248964
     8  C    0.000000  -0.000005  -0.000015   0.000434   0.010372  -0.073521
     9  C   -0.000000  -0.000000  -0.000001   0.000020  -0.001886   0.007280
    10  O   -0.000000  -0.000000  -0.000000  -0.000000  -0.000472   0.000504
    11  H    0.303555  -0.029127   0.011156  -0.000263  -0.000031  -0.000001
    12  H   -0.047193   0.400255  -0.044534   0.010934  -0.000158  -0.000123
    13  H   -0.047102   0.399095  -0.043403   0.010953  -0.000221  -0.000058
    14  H    0.014226  -0.027609   0.374340  -0.046712  -0.006171   0.000017
    15  H    0.014029  -0.028504   0.374916  -0.046688  -0.006125   0.000242
    16  H   -0.000023   0.000004  -0.005403  -0.048517   0.385526  -0.034936
    17  H   -0.000022  -0.000030  -0.005139  -0.048260   0.381996  -0.031970
    18  H    0.000001  -0.000058  -0.000161   0.012274  -0.031265   0.381185
    19  H    0.000001  -0.000056  -0.000144   0.012236  -0.036495   0.384195
    20  H   -0.000000  -0.000000   0.000006  -0.000022  -0.000262  -0.008977
    21  H   -0.000000   0.000000   0.000013  -0.000044   0.000693  -0.012520
    22  H    0.000000  -0.000000   0.000000   0.000000  -0.000046   0.000308
    23  H    0.000000   0.000000   0.000002   0.000001   0.000054  -0.002612
    24  H   -0.000000   0.000000  -0.000000   0.000000   0.000012   0.000118
               7          8          9         10         11         12
     1  O    0.000000   0.000000  -0.000000  -0.000000   0.303555  -0.047193
     2  C    0.000012  -0.000005  -0.000000  -0.000000  -0.029127   0.400255
     3  C    0.000451  -0.000015  -0.000001  -0.000000   0.011156  -0.044534
     4  O    0.004423   0.000434   0.000020  -0.000000  -0.000263   0.010934
     5  C   -0.070562   0.010372  -0.001886  -0.000472  -0.000031  -0.000158
     6  C    0.248964  -0.073521   0.007280   0.000504  -0.000001  -0.000123
     7  O    8.071562   0.252029  -0.058429  -0.001359   0.000000   0.000001
     8  C    0.252029   5.127431   0.213386  -0.089354   0.000000   0.000001
     9  C   -0.058429   0.213386   4.965705   0.305859   0.000000  -0.000000
    10  O   -0.001359  -0.089354   0.305859   8.020082  -0.000000   0.000000
    11  H    0.000000   0.000000   0.000000  -0.000000   0.405478  -0.003762
    12  H    0.000001   0.000001  -0.000000   0.000000  -0.003762   0.624562
    13  H    0.000001   0.000001  -0.000000  -0.000000  -0.003945  -0.066318
    14  H   -0.000020   0.000006  -0.000001  -0.000000  -0.000645   0.014961
    15  H   -0.000015   0.000010   0.000000  -0.000000  -0.000654  -0.021682
    16  H    0.012512   0.000129  -0.000014   0.000011   0.000003  -0.000194
    17  H    0.012607  -0.000589   0.000186   0.000062   0.000003   0.000180
    18  H   -0.048271  -0.005475  -0.000086  -0.000087   0.000000   0.000012
    19  H   -0.049137  -0.004430   0.000718   0.000002   0.000000   0.000050
    20  H   -0.049296   0.375732  -0.012298   0.005648  -0.000000  -0.000000
    21  H   -0.055150   0.384976  -0.028387   0.001413  -0.000000   0.000000
    22  H    0.006127  -0.027027   0.384549  -0.050741  -0.000000   0.000000
    23  H    0.001515  -0.053235   0.410001  -0.054783   0.000000  -0.000000
    24  H   -0.000316   0.014254  -0.037174   0.304623   0.000000  -0.000000
              13         14         15         16         17         18
     1  O   -0.047102   0.014226   0.014029  -0.000023  -0.000022   0.000001
     2  C    0.399095  -0.027609  -0.028504   0.000004  -0.000030  -0.000058
     3  C   -0.043403   0.374340   0.374916  -0.005403  -0.005139  -0.000161
     4  O    0.010953  -0.046712  -0.046688  -0.048517  -0.048260   0.012274
     5  C   -0.000221  -0.006171  -0.006125   0.385526   0.381996  -0.031265
     6  C   -0.000058   0.000017   0.000242  -0.034936  -0.031970   0.381185
     7  O    0.000001  -0.000020  -0.000015   0.012512   0.012607  -0.048271
     8  C    0.000001   0.000006   0.000010   0.000129  -0.000589  -0.005475
     9  C   -0.000000  -0.000001   0.000000  -0.000014   0.000186  -0.000086
    10  O   -0.000000  -0.000000  -0.000000   0.000011   0.000062  -0.000087
    11  H   -0.003945  -0.000645  -0.000654   0.000003   0.000003   0.000000
    12  H   -0.066318   0.014961  -0.021682  -0.000194   0.000180   0.000012
    13  H    0.624620  -0.021700   0.014976   0.000181  -0.000194   0.000052
    14  H   -0.021700   0.632420  -0.071777  -0.005984   0.016154  -0.000170
    15  H    0.014976  -0.071777   0.632979   0.016201  -0.006134   0.000180
    16  H    0.000181  -0.005984   0.016201   0.626234  -0.069769   0.014040
    17  H   -0.000194   0.016154  -0.006134  -0.069769   0.627196  -0.020097
    18  H    0.000052  -0.000170   0.000180   0.014040  -0.020097   0.628974
    19  H    0.000013   0.000176  -0.000163  -0.020191   0.014111  -0.070666
    20  H    0.000000  -0.000003   0.000003  -0.000186   0.000208  -0.006284
    21  H   -0.000000   0.000003  -0.000003   0.000178  -0.000165   0.016455
    22  H   -0.000000  -0.000000  -0.000000   0.000007   0.000004   0.000120
    23  H    0.000000   0.000000  -0.000000   0.000141  -0.000029   0.000300
    24  H    0.000000   0.000000   0.000000  -0.000002  -0.000000  -0.000009
              19         20         21         22         23         24
     1  O    0.000001  -0.000000  -0.000000   0.000000   0.000000  -0.000000
     2  C   -0.000056  -0.000000   0.000000  -0.000000   0.000000   0.000000
     3  C   -0.000144   0.000006   0.000013   0.000000   0.000002  -0.000000
     4  O    0.012236  -0.000022  -0.000044   0.000000   0.000001   0.000000
     5  C   -0.036495  -0.000262   0.000693  -0.000046   0.000054   0.000012
     6  C    0.384195  -0.008977  -0.012520   0.000308  -0.002612   0.000118
     7  O   -0.049137  -0.049296  -0.055150   0.006127   0.001515  -0.000316
     8  C   -0.004430   0.375732   0.384976  -0.027027  -0.053235   0.014254
     9  C    0.000718  -0.012298  -0.028387   0.384549   0.410001  -0.037174
    10  O    0.000002   0.005648   0.001413  -0.050741  -0.054783   0.304623
    11  H    0.000000  -0.000000  -0.000000  -0.000000   0.000000   0.000000
    12  H    0.000050  -0.000000   0.000000   0.000000  -0.000000  -0.000000
    13  H    0.000013   0.000000  -0.000000  -0.000000   0.000000   0.000000
    14  H    0.000176  -0.000003   0.000003  -0.000000   0.000000   0.000000
    15  H   -0.000163   0.000003  -0.000003  -0.000000  -0.000000   0.000000
    16  H   -0.020191  -0.000186   0.000178   0.000007   0.000141  -0.000002
    17  H    0.014111   0.000208  -0.000165   0.000004  -0.000029  -0.000000
    18  H   -0.070666  -0.006284   0.016455   0.000120   0.000300  -0.000009
    19  H    0.631905   0.016933  -0.006107  -0.000020  -0.000319   0.000001
    20  H    0.016933   0.599527  -0.055538   0.004056  -0.007533  -0.000703
    21  H   -0.006107  -0.055538   0.615794  -0.006764   0.013814  -0.000256
    22  H   -0.000020   0.004056  -0.006764   0.609428  -0.055399  -0.003505
    23  H   -0.000319  -0.007533   0.013814  -0.055399   0.616038  -0.003841
    24  H    0.000001  -0.000703  -0.000256  -0.003505  -0.003841   0.411280
 Mulliken charges:
               1
     1  O   -0.442623
     2  C   -0.143937
     3  C   -0.108890
     4  O   -0.284566
     5  C   -0.122207
     6  C   -0.122227
     7  O   -0.277650
     8  C   -0.125108
     9  C   -0.149429
    10  O   -0.441406
    11  H    0.318232
    12  H    0.133010
    13  H    0.133048
    14  H    0.128487
    15  H    0.128209
    16  H    0.130053
    17  H    0.129693
    18  H    0.129033
    19  H    0.127388
    20  H    0.138990
    21  H    0.131595
    22  H    0.138903
    23  H    0.135883
    24  H    0.315519
 Sum of Mulliken charges =  -0.00000
 Mulliken charges with hydrogens summed into heavy atoms:
               1
     1  O   -0.124392
     2  C    0.122121
     3  C    0.147806
     4  O   -0.284566
     5  C    0.137539
     6  C    0.134195
     7  O   -0.277650
     8  C    0.145477
     9  C    0.125357
    10  O   -0.125888
 Electronic spatial extent (au):  <R**2>=           3610.9465
 Charge=             -0.0000 electrons
 Dipole moment (field-independent basis, Debye):
    X=             -1.2429    Y=             -2.5014    Z=              0.7302  Tot=              2.8871
 Quadrupole moment (field-independent basis, Debye-Ang):
   XX=            -36.5688   YY=            -61.9102   ZZ=            -63.2225
   XY=             -4.3223   XZ=            -10.1659   YZ=              0.9644
 Traceless Quadrupole moment (field-independent basis, Debye-Ang):
   XX=             17.3317   YY=             -8.0097   ZZ=             -9.3220
   XY=             -4.3223   XZ=            -10.1659   YZ=              0.9644
 Octapole moment (field-independent basis, Debye-Ang**2):
  XXX=            -42.5517  YYY=              3.8027  ZZZ=              0.0475  XYY=            -15.9537
  XXY=            -39.0880  XXZ=              1.2693  XZZ=              5.3389  YZZ=             -0.5195
  YYZ=              1.4310  XYZ=             -6.3737
 Hexadecapole moment (field-independent basis, Debye-Ang**3):
 XXXX=          -2734.8619 YYYY=           -224.0314 ZZZZ=           -131.8468 XXXY=           -401.8139
 XXXZ=           -295.6299 YYYX=            -34.8747 YYYZ=             -5.6963 ZZZX=             -6.1590
 ZZZY=              1.8689 XXYY=           -695.9594 XXZZ=           -743.3499 YYZZ=            -62.1700
 XXYZ=             20.3443 YYXZ=             -4.3458 ZZXY=             -0.9625
 N-N= 5.385660766357D+02 E-N=-2.338697852455D+03  KE= 5.356804497062D+02
 Unable to Open any file for archive entry.
 1\1\GINC-TCN1632\SP\RBP86\TZVP\C6H14O4\ELENAA\22-Feb-2021\0\\# BP86/TZ
 VP SCRF=COSMORS geom=CHECKPOINT guess=CHECKPOINT\\COSMO-file for #ZIBG
 PFATKBEMQZ-UHFFFAOYSA-N\\0,1\O,0,-0.1997480952,-0.6485971136,-2.011524
 6483\C,0,-0.7741983793,-0.3212732696,-0.732467867\C,0,0.1435526793,0.7
 078496795,-0.0880030039\O,0,-0.4148102676,1.0459194963,1.1848840266\C,
 0,0.378040493,2.0086005987,1.8845550416\C,0,-0.3154417059,2.2933633934
 ,3.2093890928\O,0,0.4794310516,3.2532324385,3.908085212\C,0,-0.0794440
 481,3.5908354444,5.1841560104\C,0,0.7902391709,4.6285718098,5.85855621
 44\O,0,0.6532173595,5.8840938216,5.1639382019\H,0,-0.7817109741,-1.302
 4654416,-2.4363026748\H,0,-0.8427962418,-1.2110139777,-0.0798981722\H,
 0,-1.7869231846,0.1083753834,-0.8415124376\H,0,0.2174569937,1.60461116
 75,-0.7343467535\H,0,1.1607102843,0.2849549686,0.0298606179\H,0,1.3981
 76448,1.6185584398,2.068996254\H,0,0.4690755026,2.944054251,1.29852689
 45\H,0,-1.3354546214,2.6839978003,3.0239246363\H,0,-0.409465469,1.3566
 203966,3.7939861122\H,0,-0.1325534488,2.6916192873,5.83025722\H,0,-1.1
 081185956,3.9853341816,5.0625974836\H,0,0.4633277245,4.7181949954,6.91
 17910982\H,0,1.8402510916,4.2811366473,5.8516022472\H,0,1.2480862324,6
 .5231156017,5.5943291936\\Version=ES64L-G16RevC.01\State=1-A\HF=-538.1
 298958\RMSD=4.970e-09\Dipole=-0.2082635,-0.4717529,1.0120533\Quadrupol
 e=-4.0662332,-1.4355956,5.5018288,6.5861493,7.5185027,8.2702243\PG=C01
  [X(C6H14O4)]\\@
 The archive entry for this job was punched.


 MYSTERY IS THE WISDOM OF BLOCKHEADS... HORACE WALPOLE 
 Job cpu time:       0 days  0 hours  5 minutes 48.7 seconds.
 Elapsed time:       0 days  0 hours  0 minutes 11.5 seconds.
 File lengths (MBytes):  RWF=     66 Int=      0 D2E=      0 Chk=      9 Scr=      1
 Normal termination of Gaussian 16 at Mon Feb 22 21:32:58 2021.
