 Entering Gaussian System, Link 0=g16
 Input=ZQPPMHVWECSIRJ-KTKRTIGZSA-N.gjf
 Output=ZQPPMHVWECSIRJ-KTKRTIGZSA-N.log
 Initial command:
 /sw/arch/RedHatEnterpriseServer7/EB_production/2019/software/Gaussian/g16.c01/l1.exe "/scratch-local/elenaa.9715960/Gau-28546.inp" -scrdir="/scratch-local/elenaa.9715960/"
 Entering Link 1 = /sw/arch/RedHatEnterpriseServer7/EB_production/2019/software/Gaussian/g16.c01/l1.exe PID=     28547.
  
 Copyright (c) 1988-2019, Gaussian, Inc.  All Rights Reserved.
  
 This is part of the Gaussian(R) 16 program.  It is based on
 the Gaussian(R) 09 system (copyright 2009, Gaussian, Inc.),
 the Gaussian(R) 03 system (copyright 2003, Gaussian, Inc.),
 the Gaussian(R) 98 system (copyright 1998, Gaussian, Inc.),
 the Gaussian(R) 94 system (copyright 1995, Gaussian, Inc.),
 the Gaussian 92(TM) system (copyright 1992, Gaussian, Inc.),
 the Gaussian 90(TM) system (copyright 1990, Gaussian, Inc.),
 the Gaussian 88(TM) system (copyright 1988, Gaussian, Inc.),
 the Gaussian 86(TM) system (copyright 1986, Carnegie Mellon
 University), and the Gaussian 82(TM) system (copyright 1983,
 Carnegie Mellon University). Gaussian is a federally registered
 trademark of Gaussian, Inc.
  
 This software contains proprietary and confidential information,
 including trade secrets, belonging to Gaussian, Inc.
  
 This software is provided under written license and may be
 used, copied, transmitted, or stored only in accord with that
 written license.
  
 The following legend is applicable only to US Government
 contracts under FAR:
  
                    RESTRICTED RIGHTS LEGEND
  
 Use, reproduction and disclosure by the US Government is
 subject to restrictions as set forth in subparagraphs (a)
 and (c) of the Commercial Computer Software - Restricted
 Rights clause in FAR 52.227-19.
  
 Gaussian, Inc.
 340 Quinnipiac St., Bldg. 40, Wallingford CT 06492
  
  
 ---------------------------------------------------------------
 Warning -- This program may not be used in any manner that
 competes with the business of Gaussian, Inc. or will provide
 assistance to any competitor of Gaussian, Inc.  The licensee
 of this program is prohibited from giving any competitor of
 Gaussian, Inc. access to this program.  By using this program,
 the user acknowledges that Gaussian, Inc. is engaged in the
 business of creating and licensing software in the field of
 computational chemistry and represents and warrants to the
 licensee that it is not a competitor of Gaussian, Inc. and that
 it will not use this program in any manner prohibited above.
 ---------------------------------------------------------------
  

 Cite this work as:
 Gaussian 16, Revision C.01,
 M. J. Frisch, G. W. Trucks, H. B. Schlegel, G. E. Scuseria, 
 M. A. Robb, J. R. Cheeseman, G. Scalmani, V. Barone, 
 G. A. Petersson, H. Nakatsuji, X. Li, M. Caricato, A. V. Marenich, 
 J. Bloino, B. G. Janesko, R. Gomperts, B. Mennucci, H. P. Hratchian, 
 J. V. Ortiz, A. F. Izmaylov, J. L. Sonnenberg, D. Williams-Young, 
 F. Ding, F. Lipparini, F. Egidi, J. Goings, B. Peng, A. Petrone, 
 T. Henderson, D. Ranasinghe, V. G. Zakrzewski, J. Gao, N. Rega, 
 G. Zheng, W. Liang, M. Hada, M. Ehara, K. Toyota, R. Fukuda, 
 J. Hasegawa, M. Ishida, T. Nakajima, Y. Honda, O. Kitao, H. Nakai, 
 T. Vreven, K. Throssell, J. A. Montgomery, Jr., J. E. Peralta, 
 F. Ogliaro, M. J. Bearpark, J. J. Heyd, E. N. Brothers, K. N. Kudin, 
 V. N. Staroverov, T. A. Keith, R. Kobayashi, J. Normand, 
 K. Raghavachari, A. P. Rendell, J. C. Burant, S. S. Iyengar, 
 J. Tomasi, M. Cossi, J. M. Millam, M. Klene, C. Adamo, R. Cammi, 
 J. W. Ochterski, R. L. Martin, K. Morokuma, O. Farkas, 
 J. B. Foresman, and D. J. Fox, Gaussian, Inc., Wallingford CT, 2019.
 
 ******************************************
 Gaussian 16:  ES64L-G16RevC.01  3-Jul-2019
                23-Feb-2021 
 ******************************************
 %chk=ZQPPMHVWECSIRJ-KTKRTIGZSA-N.chk
 %NProcShared=32
 Will use up to   32 processors via shared memory.
 -------------------------------------------------------------
 #P BP86/TZVP EmpiricalDispersion=GD3 SCRF=(Solvent=Water) Opt
 -------------------------------------------------------------
 1/18=20,19=15,26=3,38=1/1,3;
 2/9=110,12=2,17=6,18=5,40=1/2;
 3/5=19,7=101,11=2,25=1,30=1,70=2201,71=1,72=1,74=404,124=31/1,2,3;
 4//1;
 5/5=2,38=5,53=1/2;
 6/7=2,8=2,9=2,10=2,28=1/1;
 7//1,2,3,16;
 1/18=20,19=15,26=3/3(2);
 2/9=110/2;
 99//99;
 2/9=110/2;
 3/5=19,7=101,11=2,25=1,30=1,70=2205,71=1,72=1,74=404,124=31/1,2,3;
 4/5=5,16=3,69=1/1;
 5/5=2,38=5,53=1/2;
 7//1,2,3,16;
 1/18=20,19=15,26=3/3(-5);
 2/9=110/2;
 6/7=2,8=2,9=2,10=2,19=2,28=1/1;
 99/9=1/99;
 Leave Link    1 at Tue Feb 23 00:14:47 2021, MaxMem=           0 cpu:               1.5 elap:               0.1
 (Enter /sw/arch/RedHatEnterpriseServer7/EB_production/2019/software/Gaussian/g16.c01/l101.exe)
 -------------------------------------
 Particle #ZQPPMHVWECSIRJ-KTKRTIGZSA-N
 -------------------------------------
 Symbolic Z-matrix:
 Charge =  0 Multiplicity = 1
 C                     8.48098  -7.16397   2.77271 
 C                     8.28835  -5.66868   2.43747 
 C                     6.85808  -5.34668   1.93334 
 C                     6.67961  -3.84447   1.59839 
 C                     5.2504   -3.52806   1.08672 
 C                     5.0739   -2.03147   0.72712 
 C                     3.65234  -1.70889   0.19488 
 C                     3.51127  -0.2161   -0.20464 
 C                     2.18489   0.15991  -0.67851 
 C                     1.8065    1.41333  -0.98883 
 C                     2.64492   2.60209  -0.89237 
 C                     2.61259   3.2308    0.52792 
 C                     3.70052   4.32068   0.71064 
 C                     3.70071   4.94792   2.12883 
 C                     4.76997   6.06288   2.26389 
 C                     4.76659   6.72764   3.66318 
 C                     5.81995   7.86012   3.77694 
 C                     5.86518   8.43195   5.13465 
 O                     4.95809   9.19427   5.53464 
 O                     6.87673   8.11754   5.97736 
 H                     9.50143  -7.33387   3.12165 
 H                     7.78762  -7.4705    3.55911 
 H                     8.30854  -7.77852   1.88623 
 H                     9.01511  -5.3884    1.66977 
 H                     8.49736  -5.08098   3.33576 
 H                     6.1344   -5.63001   2.70298 
 H                     6.65376  -5.93909   1.03694 
 H                     7.40587  -3.56045   0.8316 
 H                     6.87986  -3.25006   2.49422 
 H                     4.52602  -3.79773   1.85989 
 H                     5.04703  -4.13383   0.19951 
 H                     5.26663  -1.42781   1.61935 
 H                     5.81157  -1.7606   -0.03393 
 H                     3.44195  -2.33341  -0.67789 
 H                     2.91825  -1.94451   0.97124 
 H                     4.23785   0.00172  -0.99296 
 H                     3.76196   0.38801   0.67025 
 H                     1.50392  -0.55683  -0.78766 
 H                     0.87245   1.54549  -1.30288 
 H                     2.28873   3.3417   -1.61333 
 H                     3.67246   2.36467  -1.18059 
 H                     1.62527   3.67259   0.69552 
 H                     2.76571   2.45842   1.28561 
 H                     3.53518   5.10861  -0.03028 
 H                     4.68299   3.87593   0.52509 
 H                     2.71314   5.36752   2.33552 
 H                     3.90112   4.16658   2.86779 
 H                     5.75657   5.63006   2.07574 
 H                     4.58534   6.82754   1.50474 
 H                     4.98084   5.96065   4.41345 
 H                     3.77086   7.1344    3.8634 
 H                     6.8043    7.45894   3.52777 
 H                     5.58938   8.65474   3.06355 
 H                     6.91136   8.49393   6.88405 
 
 ITRead=  0  0  0  0  0  0  0  0  0  0  0  0  0  0  0  0  0  0  0  0
 ITRead=  0  0  0  0  0  0  0  0  0  0  0  0  0  0  0  0  0  0  0  0
 ITRead=  0  0  0  0  0  0  0  0  0  0  0  0  0  0
 MicOpt= -1 -1 -1 -1 -1 -1 -1 -1 -1 -1 -1 -1 -1 -1 -1 -1 -1 -1 -1 -1
 MicOpt= -1 -1 -1 -1 -1 -1 -1 -1 -1 -1 -1 -1 -1 -1 -1 -1 -1 -1 -1 -1
 MicOpt= -1 -1 -1 -1 -1 -1 -1 -1 -1 -1 -1 -1 -1 -1
 NAtoms=     54 NQM=       54 NQMF=       0 NMMI=      0 NMMIF=      0
                NMic=       0 NMicF=      0.
                    Isotopes and Nuclear Properties:
 (Nuclear quadrupole moments (NQMom) in fm**2, nuclear magnetic moments (NMagM)
  in nuclear magnetons)

  Atom         1           2           3           4           5           6           7           8           9          10
 IAtWgt=          12          12          12          12          12          12          12          12          12          12
 AtmWgt=  12.0000000  12.0000000  12.0000000  12.0000000  12.0000000  12.0000000  12.0000000  12.0000000  12.0000000  12.0000000
 NucSpn=           0           0           0           0           0           0           0           0           0           0
 AtZEff=  -0.0000000  -0.0000000  -0.0000000  -0.0000000  -0.0000000  -0.0000000  -0.0000000  -0.0000000  -0.0000000  -0.0000000
 NQMom=    0.0000000   0.0000000   0.0000000   0.0000000   0.0000000   0.0000000   0.0000000   0.0000000   0.0000000   0.0000000
 NMagM=    0.0000000   0.0000000   0.0000000   0.0000000   0.0000000   0.0000000   0.0000000   0.0000000   0.0000000   0.0000000
 AtZNuc=   6.0000000   6.0000000   6.0000000   6.0000000   6.0000000   6.0000000   6.0000000   6.0000000   6.0000000   6.0000000

  Atom        11          12          13          14          15          16          17          18          19          20
 IAtWgt=          12          12          12          12          12          12          12          12          16          16
 AtmWgt=  12.0000000  12.0000000  12.0000000  12.0000000  12.0000000  12.0000000  12.0000000  12.0000000  15.9949146  15.9949146
 NucSpn=           0           0           0           0           0           0           0           0           0           0
 AtZEff=  -0.0000000  -0.0000000  -0.0000000  -0.0000000  -0.0000000  -0.0000000  -0.0000000  -0.0000000  -0.0000000  -0.0000000
 NQMom=    0.0000000   0.0000000   0.0000000   0.0000000   0.0000000   0.0000000   0.0000000   0.0000000   0.0000000   0.0000000
 NMagM=    0.0000000   0.0000000   0.0000000   0.0000000   0.0000000   0.0000000   0.0000000   0.0000000   0.0000000   0.0000000
 AtZNuc=   6.0000000   6.0000000   6.0000000   6.0000000   6.0000000   6.0000000   6.0000000   6.0000000   8.0000000   8.0000000

  Atom        21          22          23          24          25          26          27          28          29          30
 IAtWgt=           1           1           1           1           1           1           1           1           1           1
 AtmWgt=   1.0078250   1.0078250   1.0078250   1.0078250   1.0078250   1.0078250   1.0078250   1.0078250   1.0078250   1.0078250
 NucSpn=           1           1           1           1           1           1           1           1           1           1
 AtZEff=  -0.0000000  -0.0000000  -0.0000000  -0.0000000  -0.0000000  -0.0000000  -0.0000000  -0.0000000  -0.0000000  -0.0000000
 NQMom=    0.0000000   0.0000000   0.0000000   0.0000000   0.0000000   0.0000000   0.0000000   0.0000000   0.0000000   0.0000000
 NMagM=    2.7928460   2.7928460   2.7928460   2.7928460   2.7928460   2.7928460   2.7928460   2.7928460   2.7928460   2.7928460
 AtZNuc=   1.0000000   1.0000000   1.0000000   1.0000000   1.0000000   1.0000000   1.0000000   1.0000000   1.0000000   1.0000000

  Atom        31          32          33          34          35          36          37          38          39          40
 IAtWgt=           1           1           1           1           1           1           1           1           1           1
 AtmWgt=   1.0078250   1.0078250   1.0078250   1.0078250   1.0078250   1.0078250   1.0078250   1.0078250   1.0078250   1.0078250
 NucSpn=           1           1           1           1           1           1           1           1           1           1
 AtZEff=  -0.0000000  -0.0000000  -0.0000000  -0.0000000  -0.0000000  -0.0000000  -0.0000000  -0.0000000  -0.0000000  -0.0000000
 NQMom=    0.0000000   0.0000000   0.0000000   0.0000000   0.0000000   0.0000000   0.0000000   0.0000000   0.0000000   0.0000000
 NMagM=    2.7928460   2.7928460   2.7928460   2.7928460   2.7928460   2.7928460   2.7928460   2.7928460   2.7928460   2.7928460
 AtZNuc=   1.0000000   1.0000000   1.0000000   1.0000000   1.0000000   1.0000000   1.0000000   1.0000000   1.0000000   1.0000000

  Atom        41          42          43          44          45          46          47          48          49          50
 IAtWgt=           1           1           1           1           1           1           1           1           1           1
 AtmWgt=   1.0078250   1.0078250   1.0078250   1.0078250   1.0078250   1.0078250   1.0078250   1.0078250   1.0078250   1.0078250
 NucSpn=           1           1           1           1           1           1           1           1           1           1
 AtZEff=  -0.0000000  -0.0000000  -0.0000000  -0.0000000  -0.0000000  -0.0000000  -0.0000000  -0.0000000  -0.0000000  -0.0000000
 NQMom=    0.0000000   0.0000000   0.0000000   0.0000000   0.0000000   0.0000000   0.0000000   0.0000000   0.0000000   0.0000000
 NMagM=    2.7928460   2.7928460   2.7928460   2.7928460   2.7928460   2.7928460   2.7928460   2.7928460   2.7928460   2.7928460
 AtZNuc=   1.0000000   1.0000000   1.0000000   1.0000000   1.0000000   1.0000000   1.0000000   1.0000000   1.0000000   1.0000000

  Atom        51          52          53          54
 IAtWgt=           1           1           1           1
 AtmWgt=   1.0078250   1.0078250   1.0078250   1.0078250
 NucSpn=           1           1           1           1
 AtZEff=  -0.0000000  -0.0000000  -0.0000000  -0.0000000
 NQMom=    0.0000000   0.0000000   0.0000000   0.0000000
 NMagM=    2.7928460   2.7928460   2.7928460   2.7928460
 AtZNuc=   1.0000000   1.0000000   1.0000000   1.0000000
 Leave Link  101 at Tue Feb 23 00:14:48 2021, MaxMem=   104857600 cpu:               3.1 elap:               0.1
 (Enter /sw/arch/RedHatEnterpriseServer7/EB_production/2019/software/Gaussian/g16.c01/l103.exe)

 GradGradGradGradGradGradGradGradGradGradGradGradGradGradGradGradGradGrad
 Berny optimization.
 Initialization pass.
                           ----------------------------
                           !    Initial Parameters    !
                           ! (Angstroms and Degrees)  !
 --------------------------                            --------------------------
 ! Name  Definition              Value          Derivative Info.                !
 --------------------------------------------------------------------------------
 ! R1    R(1,2)                  1.5445         estimate D2E/DX2                !
 ! R2    R(1,21)                 1.0918         estimate D2E/DX2                !
 ! R3    R(1,22)                 1.0923         estimate D2E/DX2                !
 ! R4    R(1,23)                 1.0924         estimate D2E/DX2                !
 ! R5    R(2,3)                  1.5503         estimate D2E/DX2                !
 ! R6    R(2,24)                 1.0937         estimate D2E/DX2                !
 ! R7    R(2,25)                 1.0936         estimate D2E/DX2                !
 ! R8    R(3,4)                  1.5494         estimate D2E/DX2                !
 ! R9    R(3,26)                 1.0938         estimate D2E/DX2                !
 ! R10   R(3,27)                 1.0937         estimate D2E/DX2                !
 ! R11   R(4,5)                  1.5507         estimate D2E/DX2                !
 ! R12   R(4,28)                 1.0937         estimate D2E/DX2                !
 ! R13   R(4,29)                 1.0936         estimate D2E/DX2                !
 ! R14   R(5,6)                  1.5493         estimate D2E/DX2                !
 ! R15   R(5,30)                 1.0933         estimate D2E/DX2                !
 ! R16   R(5,31)                 1.0934         estimate D2E/DX2                !
 ! R17   R(6,7)                  1.5518         estimate D2E/DX2                !
 ! R18   R(6,32)                 1.0944         estimate D2E/DX2                !
 ! R19   R(6,33)                 1.0939         estimate D2E/DX2                !
 ! R20   R(7,8)                  1.5518         estimate D2E/DX2                !
 ! R21   R(7,34)                 1.0936         estimate D2E/DX2                !
 ! R22   R(7,35)                 1.0941         estimate D2E/DX2                !
 ! R23   R(8,9)                  1.4578         estimate D2E/DX2                !
 ! R24   R(8,36)                 1.094          estimate D2E/DX2                !
 ! R25   R(8,37)                 1.0923         estimate D2E/DX2                !
 ! R26   R(9,10)                 1.3456         estimate D2E/DX2                !
 ! R27   R(9,38)                 0.9947         estimate D2E/DX2                !
 ! R28   R(10,11)                1.4579         estimate D2E/DX2                !
 ! R29   R(10,39)                0.9943         estimate D2E/DX2                !
 ! R30   R(11,12)                1.5536         estimate D2E/DX2                !
 ! R31   R(11,40)                1.0926         estimate D2E/DX2                !
 ! R32   R(11,41)                1.0933         estimate D2E/DX2                !
 ! R33   R(12,13)                1.5507         estimate D2E/DX2                !
 ! R34   R(12,42)                1.0946         estimate D2E/DX2                !
 ! R35   R(12,43)                1.0928         estimate D2E/DX2                !
 ! R36   R(13,14)                1.5507         estimate D2E/DX2                !
 ! R37   R(13,44)                1.0941         estimate D2E/DX2                !
 ! R38   R(13,45)                1.0943         estimate D2E/DX2                !
 ! R39   R(14,15)                1.5507         estimate D2E/DX2                !
 ! R40   R(14,46)                1.0927         estimate D2E/DX2                !
 ! R41   R(14,47)                1.0939         estimate D2E/DX2                !
 ! R42   R(15,16)                1.5492         estimate D2E/DX2                !
 ! R43   R(15,48)                1.0937         estimate D2E/DX2                !
 ! R44   R(15,49)                1.0932         estimate D2E/DX2                !
 ! R45   R(16,17)                1.5508         estimate D2E/DX2                !
 ! R46   R(16,50)                1.0941         estimate D2E/DX2                !
 ! R47   R(16,51)                1.0941         estimate D2E/DX2                !
 ! R48   R(17,18)                1.4739         estimate D2E/DX2                !
 ! R49   R(17,52)                1.0918         estimate D2E/DX2                !
 ! R50   R(17,53)                1.0925         estimate D2E/DX2                !
 ! R51   R(18,19)                1.2506         estimate D2E/DX2                !
 ! R52   R(18,20)                1.3536         estimate D2E/DX2                !
 ! R53   R(20,54)                0.9823         estimate D2E/DX2                !
 ! A1    A(2,1,21)             109.6708         estimate D2E/DX2                !
 ! A2    A(2,1,22)             110.4134         estimate D2E/DX2                !
 ! A3    A(2,1,23)             110.4162         estimate D2E/DX2                !
 ! A4    A(21,1,22)            108.6346         estimate D2E/DX2                !
 ! A5    A(21,1,23)            108.625          estimate D2E/DX2                !
 ! A6    A(22,1,23)            109.0366         estimate D2E/DX2                !
 ! A7    A(1,2,3)              112.7513         estimate D2E/DX2                !
 ! A8    A(1,2,24)             108.5179         estimate D2E/DX2                !
 ! A9    A(1,2,25)             108.5512         estimate D2E/DX2                !
 ! A10   A(3,2,24)             109.3643         estimate D2E/DX2                !
 ! A11   A(3,2,25)             109.3781         estimate D2E/DX2                !
 ! A12   A(24,2,25)            108.1712         estimate D2E/DX2                !
 ! A13   A(2,3,4)              112.2057         estimate D2E/DX2                !
 ! A14   A(2,3,26)             109.1345         estimate D2E/DX2                !
 ! A15   A(2,3,27)             109.0478         estimate D2E/DX2                !
 ! A16   A(4,3,26)             109.09           estimate D2E/DX2                !
 ! A17   A(4,3,27)             109.0534         estimate D2E/DX2                !
 ! A18   A(26,3,27)            108.228          estimate D2E/DX2                !
 ! A19   A(3,4,5)              112.0446         estimate D2E/DX2                !
 ! A20   A(3,4,28)             109.0785         estimate D2E/DX2                !
 ! A21   A(3,4,29)             109.1962         estimate D2E/DX2                !
 ! A22   A(5,4,28)             109.13           estimate D2E/DX2                !
 ! A23   A(5,4,29)             109.1572         estimate D2E/DX2                !
 ! A24   A(28,4,29)            108.1546         estimate D2E/DX2                !
 ! A25   A(4,5,6)              112.2531         estimate D2E/DX2                !
 ! A26   A(4,5,30)             109.0866         estimate D2E/DX2                !
 ! A27   A(4,5,31)             109.0343         estimate D2E/DX2                !
 ! A28   A(6,5,30)             109.0832         estimate D2E/DX2                !
 ! A29   A(6,5,31)             109.0059         estimate D2E/DX2                !
 ! A30   A(30,5,31)            108.2979         estimate D2E/DX2                !
 ! A31   A(5,6,7)              112.6295         estimate D2E/DX2                !
 ! A32   A(5,6,32)             108.8778         estimate D2E/DX2                !
 ! A33   A(5,6,33)             108.8954         estimate D2E/DX2                !
 ! A34   A(7,6,32)             109.0439         estimate D2E/DX2                !
 ! A35   A(7,6,33)             109.1254         estimate D2E/DX2                !
 ! A36   A(32,6,33)            108.1712         estimate D2E/DX2                !
 ! A37   A(6,7,8)              111.8115         estimate D2E/DX2                !
 ! A38   A(6,7,34)             109.3438         estimate D2E/DX2                !
 ! A39   A(6,7,35)             109.0553         estimate D2E/DX2                !
 ! A40   A(8,7,34)             109.0503         estimate D2E/DX2                !
 ! A41   A(8,7,35)             109.1994         estimate D2E/DX2                !
 ! A42   A(34,7,35)            108.3138         estimate D2E/DX2                !
 ! A43   A(7,8,9)              114.4897         estimate D2E/DX2                !
 ! A44   A(7,8,36)             108.4628         estimate D2E/DX2                !
 ! A45   A(7,8,37)             107.7552         estimate D2E/DX2                !
 ! A46   A(9,8,36)             108.5837         estimate D2E/DX2                !
 ! A47   A(9,8,37)             109.0569         estimate D2E/DX2                !
 ! A48   A(36,8,37)            108.337          estimate D2E/DX2                !
 ! A49   A(8,9,10)             124.8263         estimate D2E/DX2                !
 ! A50   A(8,9,38)             118.2105         estimate D2E/DX2                !
 ! A51   A(10,9,38)            116.9626         estimate D2E/DX2                !
 ! A52   A(9,10,11)            125.6324         estimate D2E/DX2                !
 ! A53   A(9,10,39)            117.4421         estimate D2E/DX2                !
 ! A54   A(11,10,39)           116.9225         estimate D2E/DX2                !
 ! A55   A(10,11,12)           112.2413         estimate D2E/DX2                !
 ! A56   A(10,11,40)           108.7138         estimate D2E/DX2                !
 ! A57   A(10,11,41)           110.2425         estimate D2E/DX2                !
 ! A58   A(12,11,40)           108.8164         estimate D2E/DX2                !
 ! A59   A(12,11,41)           110.3928         estimate D2E/DX2                !
 ! A60   A(40,11,41)           106.2277         estimate D2E/DX2                !
 ! A61   A(11,12,13)           112.1814         estimate D2E/DX2                !
 ! A62   A(11,12,42)           108.7899         estimate D2E/DX2                !
 ! A63   A(11,12,43)           110.178          estimate D2E/DX2                !
 ! A64   A(13,12,42)           109.3358         estimate D2E/DX2                !
 ! A65   A(13,12,43)           108.4669         estimate D2E/DX2                !
 ! A66   A(42,12,43)           107.789          estimate D2E/DX2                !
 ! A67   A(12,13,14)           113.0865         estimate D2E/DX2                !
 ! A68   A(12,13,44)           108.6821         estimate D2E/DX2                !
 ! A69   A(12,13,45)           108.9197         estimate D2E/DX2                !
 ! A70   A(14,13,44)           109.1497         estimate D2E/DX2                !
 ! A71   A(14,13,45)           108.6239         estimate D2E/DX2                !
 ! A72   A(44,13,45)           108.2723         estimate D2E/DX2                !
 ! A73   A(13,14,15)           111.7504         estimate D2E/DX2                !
 ! A74   A(13,14,46)           109.1591         estimate D2E/DX2                !
 ! A75   A(13,14,47)           109.2018         estimate D2E/DX2                !
 ! A76   A(15,14,46)           109.3055         estimate D2E/DX2                !
 ! A77   A(15,14,47)           109.1708         estimate D2E/DX2                !
 ! A78   A(46,14,47)           108.1833         estimate D2E/DX2                !
 ! A79   A(14,15,16)           112.6868         estimate D2E/DX2                !
 ! A80   A(14,15,48)           108.814          estimate D2E/DX2                !
 ! A81   A(14,15,49)           109.025          estimate D2E/DX2                !
 ! A82   A(16,15,48)           109.0976         estimate D2E/DX2                !
 ! A83   A(16,15,49)           109.0702         estimate D2E/DX2                !
 ! A84   A(48,15,49)           108.0413         estimate D2E/DX2                !
 ! A85   A(15,16,17)           112.218          estimate D2E/DX2                !
 ! A86   A(15,16,50)           108.5512         estimate D2E/DX2                !
 ! A87   A(15,16,51)           109.0757         estimate D2E/DX2                !
 ! A88   A(17,16,50)           109.1842         estimate D2E/DX2                !
 ! A89   A(17,16,51)           109.4664         estimate D2E/DX2                !
 ! A90   A(50,16,51)           108.2613         estimate D2E/DX2                !
 ! A91   A(16,17,18)           111.8223         estimate D2E/DX2                !
 ! A92   A(16,17,52)           109.1063         estimate D2E/DX2                !
 ! A93   A(16,17,53)           109.8706         estimate D2E/DX2                !
 ! A94   A(18,17,52)           108.9732         estimate D2E/DX2                !
 ! A95   A(18,17,53)           109.0144         estimate D2E/DX2                !
 ! A96   A(52,17,53)           107.9704         estimate D2E/DX2                !
 ! A97   A(17,18,19)           120.5884         estimate D2E/DX2                !
 ! A98   A(17,18,20)           120.4178         estimate D2E/DX2                !
 ! A99   A(19,18,20)           118.9804         estimate D2E/DX2                !
 ! A100  A(18,20,54)           120.7957         estimate D2E/DX2                !
 ! D1    D(21,1,2,3)          -179.9854         estimate D2E/DX2                !
 ! D2    D(21,1,2,24)           58.7063         estimate D2E/DX2                !
 ! D3    D(21,1,2,25)          -58.6365         estimate D2E/DX2                !
 ! D4    D(22,1,2,3)           -60.3083         estimate D2E/DX2                !
 ! D5    D(22,1,2,24)          178.3834         estimate D2E/DX2                !
 ! D6    D(22,1,2,25)           61.0406         estimate D2E/DX2                !
 ! D7    D(23,1,2,3)            60.3476         estimate D2E/DX2                !
 ! D8    D(23,1,2,24)          -60.9607         estimate D2E/DX2                !
 ! D9    D(23,1,2,25)         -178.3035         estimate D2E/DX2                !
 ! D10   D(1,2,3,4)           -179.8933         estimate D2E/DX2                !
 ! D11   D(1,2,3,26)            59.0731         estimate D2E/DX2                !
 ! D12   D(1,2,3,27)           -58.9651         estimate D2E/DX2                !
 ! D13   D(24,2,3,4)           -59.0672         estimate D2E/DX2                !
 ! D14   D(24,2,3,26)          179.8992         estimate D2E/DX2                !
 ! D15   D(24,2,3,27)           61.861          estimate D2E/DX2                !
 ! D16   D(25,2,3,4)            59.2285         estimate D2E/DX2                !
 ! D17   D(25,2,3,26)          -61.8051         estimate D2E/DX2                !
 ! D18   D(25,2,3,27)         -179.8432         estimate D2E/DX2                !
 ! D19   D(2,3,4,5)            179.6661         estimate D2E/DX2                !
 ! D20   D(2,3,4,28)            58.7247         estimate D2E/DX2                !
 ! D21   D(2,3,4,29)           -59.2783         estimate D2E/DX2                !
 ! D22   D(26,3,4,5)           -59.2747         estimate D2E/DX2                !
 ! D23   D(26,3,4,28)          179.7839         estimate D2E/DX2                !
 ! D24   D(26,3,4,29)           61.7809         estimate D2E/DX2                !
 ! D25   D(27,3,4,5)            58.741          estimate D2E/DX2                !
 ! D26   D(27,3,4,28)          -62.2003         estimate D2E/DX2                !
 ! D27   D(27,3,4,29)          179.7967         estimate D2E/DX2                !
 ! D28   D(3,4,5,6)           -179.0128         estimate D2E/DX2                !
 ! D29   D(3,4,5,30)            59.9641         estimate D2E/DX2                !
 ! D30   D(3,4,5,31)           -58.123          estimate D2E/DX2                !
 ! D31   D(28,4,5,6)           -58.1013         estimate D2E/DX2                !
 ! D32   D(28,4,5,30)         -179.1244         estimate D2E/DX2                !
 ! D33   D(28,4,5,31)           62.7886         estimate D2E/DX2                !
 ! D34   D(29,4,5,6)            59.909          estimate D2E/DX2                !
 ! D35   D(29,4,5,30)          -61.1141         estimate D2E/DX2                !
 ! D36   D(29,4,5,31)         -179.2012         estimate D2E/DX2                !
 ! D37   D(4,5,6,7)            179.1864         estimate D2E/DX2                !
 ! D38   D(4,5,6,32)           -59.7393         estimate D2E/DX2                !
 ! D39   D(4,5,6,33)            57.9968         estimate D2E/DX2                !
 ! D40   D(30,5,6,7)           -59.7886         estimate D2E/DX2                !
 ! D41   D(30,5,6,32)           61.2857         estimate D2E/DX2                !
 ! D42   D(30,5,6,33)          179.0219         estimate D2E/DX2                !
 ! D43   D(31,5,6,7)            58.2801         estimate D2E/DX2                !
 ! D44   D(31,5,6,32)          179.3544         estimate D2E/DX2                !
 ! D45   D(31,5,6,33)          -62.9094         estimate D2E/DX2                !
 ! D46   D(5,6,7,8)           -178.0577         estimate D2E/DX2                !
 ! D47   D(5,6,7,34)           -57.1876         estimate D2E/DX2                !
 ! D48   D(5,6,7,35)            61.0795         estimate D2E/DX2                !
 ! D49   D(32,6,7,8)            60.9629         estimate D2E/DX2                !
 ! D50   D(32,6,7,34)         -178.167          estimate D2E/DX2                !
 ! D51   D(32,6,7,35)          -59.8999         estimate D2E/DX2                !
 ! D52   D(33,6,7,8)           -56.9994         estimate D2E/DX2                !
 ! D53   D(33,6,7,34)           63.8707         estimate D2E/DX2                !
 ! D54   D(33,6,7,35)         -177.8622         estimate D2E/DX2                !
 ! D55   D(6,7,8,9)           -178.3735         estimate D2E/DX2                !
 ! D56   D(6,7,8,36)            60.2083         estimate D2E/DX2                !
 ! D57   D(6,7,8,37)           -56.8677         estimate D2E/DX2                !
 ! D58   D(34,7,8,9)            60.586          estimate D2E/DX2                !
 ! D59   D(34,7,8,36)          -60.8322         estimate D2E/DX2                !
 ! D60   D(34,7,8,37)         -177.9082         estimate D2E/DX2                !
 ! D61   D(35,7,8,9)           -57.5945         estimate D2E/DX2                !
 ! D62   D(35,7,8,36)         -179.0126         estimate D2E/DX2                !
 ! D63   D(35,7,8,37)           63.9113         estimate D2E/DX2                !
 ! D64   D(7,8,9,10)           175.1243         estimate D2E/DX2                !
 ! D65   D(7,8,9,38)            -5.1768         estimate D2E/DX2                !
 ! D66   D(36,8,9,10)          -63.5239         estimate D2E/DX2                !
 ! D67   D(36,8,9,38)          116.1749         estimate D2E/DX2                !
 ! D68   D(37,8,9,10)           54.3353         estimate D2E/DX2                !
 ! D69   D(37,8,9,38)         -125.9658         estimate D2E/DX2                !
 ! D70   D(8,9,10,11)           -0.6795         estimate D2E/DX2                !
 ! D71   D(8,9,10,39)          179.9625         estimate D2E/DX2                !
 ! D72   D(38,9,10,11)         179.6182         estimate D2E/DX2                !
 ! D73   D(38,9,10,39)           0.2602         estimate D2E/DX2                !
 ! D74   D(9,10,11,12)         -86.3018         estimate D2E/DX2                !
 ! D75   D(9,10,11,40)         153.2713         estimate D2E/DX2                !
 ! D76   D(9,10,11,41)          37.2058         estimate D2E/DX2                !
 ! D77   D(39,10,11,12)         93.0592         estimate D2E/DX2                !
 ! D78   D(39,10,11,40)        -27.3677         estimate D2E/DX2                !
 ! D79   D(39,10,11,41)       -143.4331         estimate D2E/DX2                !
 ! D80   D(10,11,12,13)        169.0277         estimate D2E/DX2                !
 ! D81   D(10,11,12,42)        -69.8804         estimate D2E/DX2                !
 ! D82   D(10,11,12,43)         48.0789         estimate D2E/DX2                !
 ! D83   D(40,11,12,13)        -70.6048         estimate D2E/DX2                !
 ! D84   D(40,11,12,42)         50.487          estimate D2E/DX2                !
 ! D85   D(40,11,12,43)        168.4463         estimate D2E/DX2                !
 ! D86   D(41,11,12,13)         45.6042         estimate D2E/DX2                !
 ! D87   D(41,11,12,42)        166.6961         estimate D2E/DX2                !
 ! D88   D(41,11,12,43)        -75.3446         estimate D2E/DX2                !
 ! D89   D(11,12,13,14)       -179.1471         estimate D2E/DX2                !
 ! D90   D(11,12,13,44)         59.483          estimate D2E/DX2                !
 ! D91   D(11,12,13,45)        -58.2772         estimate D2E/DX2                !
 ! D92   D(42,12,13,14)         60.0758         estimate D2E/DX2                !
 ! D93   D(42,12,13,44)        -61.2941         estimate D2E/DX2                !
 ! D94   D(42,12,13,45)       -179.0543         estimate D2E/DX2                !
 ! D95   D(43,12,13,14)        -57.2168         estimate D2E/DX2                !
 ! D96   D(43,12,13,44)       -178.5867         estimate D2E/DX2                !
 ! D97   D(43,12,13,45)         63.653          estimate D2E/DX2                !
 ! D98   D(12,13,14,15)       -178.2388         estimate D2E/DX2                !
 ! D99   D(12,13,14,46)        -57.2124         estimate D2E/DX2                !
 ! D100  D(12,13,14,47)         60.8752         estimate D2E/DX2                !
 ! D101  D(44,13,14,15)        -57.1331         estimate D2E/DX2                !
 ! D102  D(44,13,14,46)         63.8933         estimate D2E/DX2                !
 ! D103  D(44,13,14,47)       -178.0191         estimate D2E/DX2                !
 ! D104  D(45,13,14,15)         60.7238         estimate D2E/DX2                !
 ! D105  D(45,13,14,46)       -178.2498         estimate D2E/DX2                !
 ! D106  D(45,13,14,47)        -60.1623         estimate D2E/DX2                !
 ! D107  D(13,14,15,16)        178.6554         estimate D2E/DX2                !
 ! D108  D(13,14,15,48)        -60.2094         estimate D2E/DX2                !
 ! D109  D(13,14,15,49)         57.4081         estimate D2E/DX2                !
 ! D110  D(46,14,15,16)         57.7141         estimate D2E/DX2                !
 ! D111  D(46,14,15,48)        178.8493         estimate D2E/DX2                !
 ! D112  D(46,14,15,49)        -63.5332         estimate D2E/DX2                !
 ! D113  D(47,14,15,16)        -60.4405         estimate D2E/DX2                !
 ! D114  D(47,14,15,48)         60.6947         estimate D2E/DX2                !
 ! D115  D(47,14,15,49)        178.3122         estimate D2E/DX2                !
 ! D116  D(14,15,16,17)       -178.8328         estimate D2E/DX2                !
 ! D117  D(14,15,16,50)         60.404          estimate D2E/DX2                !
 ! D118  D(14,15,16,51)        -57.3566         estimate D2E/DX2                !
 ! D119  D(48,15,16,17)         60.1938         estimate D2E/DX2                !
 ! D120  D(48,15,16,50)        -60.5694         estimate D2E/DX2                !
 ! D121  D(48,15,16,51)       -178.33           estimate D2E/DX2                !
 ! D122  D(49,15,16,17)        -57.6112         estimate D2E/DX2                !
 ! D123  D(49,15,16,50)       -178.3744         estimate D2E/DX2                !
 ! D124  D(49,15,16,51)         63.865          estimate D2E/DX2                !
 ! D125  D(15,16,17,18)       -176.5885         estimate D2E/DX2                !
 ! D126  D(15,16,17,52)        -55.9682         estimate D2E/DX2                !
 ! D127  D(15,16,17,53)         62.2206         estimate D2E/DX2                !
 ! D128  D(50,16,17,18)        -56.1914         estimate D2E/DX2                !
 ! D129  D(50,16,17,52)         64.4289         estimate D2E/DX2                !
 ! D130  D(50,16,17,53)       -177.3823         estimate D2E/DX2                !
 ! D131  D(51,16,17,18)         62.1594         estimate D2E/DX2                !
 ! D132  D(51,16,17,52)       -177.2203         estimate D2E/DX2                !
 ! D133  D(51,16,17,53)        -59.0315         estimate D2E/DX2                !
 ! D134  D(16,17,18,19)        -74.5251         estimate D2E/DX2                !
 ! D135  D(16,17,18,20)        104.1297         estimate D2E/DX2                !
 ! D136  D(52,17,18,19)        164.7771         estimate D2E/DX2                !
 ! D137  D(52,17,18,20)        -16.5681         estimate D2E/DX2                !
 ! D138  D(53,17,18,19)         47.1602         estimate D2E/DX2                !
 ! D139  D(53,17,18,20)       -134.185          estimate D2E/DX2                !
 ! D140  D(17,18,20,54)       -179.8698         estimate D2E/DX2                !
 ! D141  D(19,18,20,54)         -1.1935         estimate D2E/DX2                !
 --------------------------------------------------------------------------------
 Trust Radius=3.00D-01 FncErr=1.00D-07 GrdErr=1.00D-06 EigMax=2.50D+02 EigMin=1.00D-04
 Number of steps in this run=    304 maximum allowed number of steps=    324.
 GradGradGradGradGradGradGradGradGradGradGradGradGradGradGradGradGradGrad

 Leave Link  103 at Tue Feb 23 00:14:48 2021, MaxMem=   104857600 cpu:               0.5 elap:               0.0
 (Enter /sw/arch/RedHatEnterpriseServer7/EB_production/2019/software/Gaussian/g16.c01/l202.exe)
 Stoichiometry    C18H34O2
 Framework group  C1[X(C18H34O2)]
 Deg. of freedom   156
 Full point group                 C1      NOp   1
 Largest Abelian subgroup         C1      NOp   1
 Largest concise Abelian subgroup C1      NOp   1
                         Standard orientation:                         
 ---------------------------------------------------------------------
 Center     Atomic      Atomic             Coordinates (Angstroms)
 Number     Number       Type             X           Y           Z
 ---------------------------------------------------------------------
      1          6           0        8.751754   -3.651316   -0.058490
      2          6           0        7.339246   -3.192886    0.365831
      3          6           0        6.965796   -1.799033   -0.200924
      4          6           0        5.548058   -1.350543    0.234456
      5          6           0        5.181650    0.047467   -0.327571
      6          6           0        3.774439    0.511358    0.124988
      7          6           0        3.406899    1.918552   -0.416204
      8          6           0        2.015144    2.384600    0.087538
      9          6           0        1.594656    3.686151   -0.416818
     10          6           0        0.392326    4.246185   -0.190312
     11          6           0       -0.691860    3.647990    0.579172
     12          6           0       -1.586439    2.720281   -0.288371
     13          6           0       -2.563536    1.877606    0.571860
     14          6           0       -3.452666    0.927977   -0.272146
     15          6           0       -4.446925    0.133280    0.613630
     16          6           0       -5.369301   -0.798458   -0.211607
     17          6           0       -6.378217   -1.565931    0.681754
     18          6           0       -7.196511   -2.509004   -0.101458
     19          8           0       -8.118218   -2.092859   -0.837132
     20          8           0       -6.943249   -3.837915   -0.055623
     21          1           0        8.962006   -4.634821    0.366312
     22          1           0        8.819379   -3.719387   -1.146574
     23          1           0        9.505187   -2.947285    0.301973
     24          1           0        7.297234   -3.163276    1.458286
     25          1           0        6.613712   -3.932892    0.016557
     26          1           0        7.010741   -1.832377   -1.293262
     27          1           0        7.696068   -1.063975    0.149250
     28          1           0        5.502168   -1.320989    1.326751
     29          1           0        4.815498   -2.082172   -0.117692
     30          1           0        5.212516    0.012968   -1.419861
     31          1           0        5.923243    0.774674    0.013997
     32          1           0        3.032738   -0.211841   -0.227840
     33          1           0        3.741501    0.527980    1.218315
     34          1           0        4.163151    2.639651   -0.093535
     35          1           0        3.402888    1.890779   -1.509983
     36          1           0        2.038010    2.425029    1.180541
     37          1           0        1.282830    1.631968   -0.213272
     38          1           0        2.238890    4.207960   -0.966388
     39          1           0        0.221583    5.141336   -0.587922
     40          1           0       -1.310616    4.447646    0.993139
     41          1           0       -0.290128    3.098508    1.434718
     42          1           0       -2.159186    3.336762   -0.988356
     43          1           0       -0.965467    2.038629   -0.874763
     44          1           0       -3.204301    2.557257    1.141621
     45          1           0       -1.984924    1.276906    1.280271
     46          1           0       -4.011484    1.516161   -1.004158
     47          1           0       -2.814050    0.224952   -0.814958
     48          1           0       -3.878969   -0.467873    1.329279
     49          1           0       -5.063582    0.838066    1.177645
     50          1           0       -4.745349   -1.518422   -0.749582
     51          1           0       -5.915246   -0.200680   -0.947560
     52          1           0       -5.829375   -2.121194    1.444925
     53          1           0       -7.038129   -0.858307    1.188996
     54          1           0       -7.483879   -4.471197   -0.576803
 ---------------------------------------------------------------------
 Rotational constants (GHZ):           0.2718004           0.0631650           0.0520409
 Leave Link  202 at Tue Feb 23 00:14:48 2021, MaxMem=   104857600 cpu:               0.7 elap:               0.1
 (Enter /sw/arch/RedHatEnterpriseServer7/EB_production/2019/software/Gaussian/g16.c01/l301.exe)
 Standard basis: TZVP (5D, 7F)
 Ernie: Thresh=  0.10000D-02 Tol=  0.10000D-05 Strict=F.
 There are   604 symmetry adapted cartesian basis functions of A   symmetry.
 There are   584 symmetry adapted basis functions of A   symmetry.
   584 basis functions,   972 primitive gaussians,   604 cartesian basis functions
    79 alpha electrons       79 beta electrons
       nuclear repulsion energy      1385.1226669637 Hartrees.
 IExCor=  404 DFT=T Ex=B Corr=P86 ExCW=0 ScaHFX=  0.000000
 ScaDFX=  1.000000  1.000000  1.000000  1.000000 ScalE2=  1.000000  1.000000
 IRadAn=      5 IRanWt=     -1 IRanGd=            0 ICorTp=0 IEmpDi=131
 NAtoms=   54 NActive=   54 NUniq=   54 SFac= 1.00D+00 NAtFMM=   60 NAOKFM=F Big=F
 Integral buffers will be    131072 words long.
 Raffenetti 2 integral format.
 Two-electron integral symmetry is turned on.
 R6Disp:  Grimme-D3 Dispersion energy=       -0.0530005191 Hartrees.
 Nuclear repulsion after empirical dispersion term =     1385.0696664446 Hartrees.
 ------------------------------------------------------------------------------
 Polarizable Continuum Model (PCM)
 =================================
 Model                : PCM.
 Atomic radii         : UFF (Universal Force Field).
 Polarization charges : Total charges.
 Charge compensation  : None.
 Solution method      : On-the-fly selection.
 Cavity type          : Scaled VdW (van der Waals Surface) (Alpha=1.100).
 Cavity algorithm     : GePol (No added spheres)
                        Default sphere list used, NSphG=   54.
                        Lebedev-Laikov grids with approx.  5.0 points / Ang**2.
                        Smoothing algorithm: York/Karplus (Gamma=1.0000).
                        Polarization charges: spherical gaussians, with
                                              point-specific exponents (IZeta= 3).
                        Self-potential: point-specific (ISelfS= 7).
                        Self-field    : sphere-specific E.n sum rule (ISelfD= 2).
 1st derivatives      : Analytical E(r).r(x)/FMM algorithm (CHGder, D1EAlg=3).
                        Cavity 1st derivative terms included.
 Solvent              : Water, Eps=  78.355300 Eps(inf)=   1.777849
 ------------------------------------------------------------------------------
 GePol: Number of generator spheres                  =      54
 GePol: Total number of spheres                      =      54
 GePol: Number of exposed spheres                    =      54 (100.00%)
 GePol: Number of points                             =    3741
 GePol: Average weight of points                     =       0.13
 GePol: Minimum weight of points                     =   0.79D-09
 GePol: Maximum weight of points                     =    0.20577
 GePol: Number of points with low weight             =     303
 GePol: Fraction of low-weight points (<1% of avg)   =       8.10%
 GePol: Cavity surface area                          =    484.579 Ang**2
 GePol: Cavity volume                                =    497.180 Ang**3
 Leave Link  301 at Tue Feb 23 00:14:48 2021, MaxMem=   104857600 cpu:               2.8 elap:               0.1
 (Enter /sw/arch/RedHatEnterpriseServer7/EB_production/2019/software/Gaussian/g16.c01/l302.exe)
 NPDir=0 NMtPBC=     1 NCelOv=     1 NCel=       1 NClECP=     1 NCelD=      1
         NCelK=      1 NCelE2=     1 NClLst=     1 CellRange=     0.0.
 One-electron integrals computed using PRISM.
 One-electron integral symmetry used in STVInt
 PrsmSu:  requested number of processors reduced to:  23 ShMem   1 Linda.
 NBasis=   584 RedAO= T EigKep=  4.04D-05  NBF=   584
 NBsUse=   584 1.00D-06 EigRej= -1.00D+00 NBFU=   584
 Precomputing XC quadrature grid using
 IXCGrd= 4 IRadAn=           5 IRanWt=          -1 IRanGd=           0 AccXCQ= 0.00D+00.
 Generated NRdTot=       0 NPtTot=           0 NUsed=           0 NTot=          32
 NSgBfM=   522   522   522   522   522 MxSgAt=    54 MxSgA2=    54.
 Leave Link  302 at Tue Feb 23 00:14:49 2021, MaxMem=   104857600 cpu:              20.5 elap:               0.7
 (Enter /sw/arch/RedHatEnterpriseServer7/EB_production/2019/software/Gaussian/g16.c01/l303.exe)
 DipDrv:  MaxL=1.
 Leave Link  303 at Tue Feb 23 00:14:49 2021, MaxMem=   104857600 cpu:               3.5 elap:               0.1
 (Enter /sw/arch/RedHatEnterpriseServer7/EB_production/2019/software/Gaussian/g16.c01/l401.exe)
 ExpMin= 9.52D-02 ExpMax= 2.70D+04 ExpMxC= 9.22D+02 IAcc=3 IRadAn=         5 AccDes= 0.00D+00
 Harris functional with IExCor=  404 and IRadAn=       5 diagonalized for initial guess.
 HarFok:  IExCor=  404 AccDes= 0.00D+00 IRadAn=         5 IDoV= 1 UseB2=F ITyADJ=14
 ICtDFT=  3500011 ScaDFX=  1.000000  1.000000  1.000000  1.000000
 FoFCou: FMM=F IPFlag=           0 FMFlag=      100000 FMFlg1=           0
         NFxFlg=           0 DoJE=T BraDBF=F KetDBF=T FulRan=T
         wScrn=  0.000000 ICntrl=       500 IOpCl=  0 I1Cent=   200000004 NGrid=           0
         NMat0=    1 NMatS0=      1 NMatT0=    0 NMatD0=    1 NMtDS0=    0 NMtDT0=    0
 Petite list used in FoFCou.
 Harris En= -857.744686638339    
 JPrj=0 DoOrth=F DoCkMO=F.
 Leave Link  401 at Tue Feb 23 00:14:51 2021, MaxMem=   104857600 cpu:              39.7 elap:               1.3
 (Enter /sw/arch/RedHatEnterpriseServer7/EB_production/2019/software/Gaussian/g16.c01/l502.exe)
 Integral symmetry usage will be decided dynamically.
 Closed shell SCF:
 Using DIIS extrapolation, IDIIS=  1040.
 NGot=   104857600 LenX=   104101034 LenY=   103735614
 Requested convergence on RMS density matrix=1.00D-08 within 128 cycles.
 Requested convergence on MAX density matrix=1.00D-06.
 Requested convergence on             energy=1.00D-06.
 No special actions if energy rises.
 Fock matrices will be formed incrementally for  20 cycles.

 Cycle   1  Pass 1  IDiag  1:
 FoFJK:  IHMeth= 1 ICntrl=     500 DoSepK=F KAlg= 0 I1Cent=           0 FoldK=F
 IRaf= 590000000 NMat=       1 IRICut=       1 DoRegI=T DoRafI=F ISym2E= 0 IDoP0=0 IntGTp=1.
 FoFCou: FMM=F IPFlag=           0 FMFlag=      100000 FMFlg1=           0
         NFxFlg=           0 DoJE=T BraDBF=F KetDBF=F FulRan=T
         wScrn=  0.000000 ICntrl=       500 IOpCl=  0 I1Cent=           0 NGrid=           0
         NMat0=    1 NMatS0=      1 NMatT0=    0 NMatD0=    1 NMtDS0=    0 NMtDT0=    0
 Symmetry not used in FoFCou.
 CoulSu:  requested number of processors reduced to:  29 ShMem   1 Linda.
 Inv3:  Mode=1 IEnd=    41985243.
 Iteration    1 A*A^-1 deviation from unit magnitude is 3.11D-15 for    986.
 Iteration    1 A*A^-1 deviation from orthogonality  is 2.33D-15 for   3689   1402.
 Iteration    1 A^-1*A deviation from unit magnitude is 3.00D-15 for   1244.
 Iteration    1 A^-1*A deviation from orthogonality  is 3.11D-15 for   3008   1736.
 CoulSu:  requested number of processors reduced to:  29 ShMem   1 Linda.
 CoulSu:  requested number of processors reduced to:  29 ShMem   1 Linda.
 E= -856.443636592171    
 DIIS: error= 3.79D-02 at cycle   1 NSaved=   1.
 NSaved= 1 IEnMin= 1 EnMin= -856.443636592171     IErMin= 1 ErrMin= 3.79D-02
 ErrMax= 3.79D-02  0.00D+00 EMaxC= 1.00D-01 BMatC= 6.92D-01 BMatP= 6.92D-01
 IDIUse=3 WtCom= 6.21D-01 WtEn= 3.79D-01
 Coeff-Com:  0.100D+01
 Coeff-En:   0.100D+01
 Coeff:      0.100D+01
 Gap=     0.181 Goal=   None    Shift=    0.000
 GapD=    0.181 DampG=1.000 DampE=0.500 DampFc=0.5000 IDamp=-1.
 Damping current iteration by 5.00D-01
 RMSDP=4.12D-03 MaxDP=4.44D-01              OVMax= 2.54D-01

 Cycle   2  Pass 1  IDiag  1:
 RMSU=  2.04D-03    CP:  9.63D-01
 E= -856.618046815250     Delta-E=       -0.174410223079 Rises=F Damp=T
 DIIS: error= 2.29D-02 at cycle   2 NSaved=   2.
 NSaved= 2 IEnMin= 2 EnMin= -856.618046815250     IErMin= 2 ErrMin= 2.29D-02
 ErrMax= 2.29D-02  0.00D+00 EMaxC= 1.00D-01 BMatC= 1.10D-01 BMatP= 6.92D-01
 IDIUse=3 WtCom= 7.71D-01 WtEn= 2.29D-01
 Coeff-Com:  0.245D+00 0.755D+00
 Coeff-En:   0.375D+00 0.625D+00
 Coeff:      0.275D+00 0.725D+00
 Gap=     0.130 Goal=   None    Shift=    0.000
 RMSDP=1.23D-03 MaxDP=1.47D-01 DE=-1.74D-01 OVMax= 2.62D-01

 Cycle   3  Pass 1  IDiag  1:
 RMSU=  8.50D-04    CP:  9.68D-01  5.68D-01
 E= -857.061134902655     Delta-E=       -0.443088087405 Rises=F Damp=F
 DIIS: error= 3.25D-02 at cycle   3 NSaved=   3.
 NSaved= 3 IEnMin= 3 EnMin= -857.061134902655     IErMin= 2 ErrMin= 2.29D-02
 ErrMax= 3.25D-02  0.00D+00 EMaxC= 1.00D-01 BMatC= 1.20D-01 BMatP= 1.10D-01
 IDIUse=3 WtCom= 6.75D-01 WtEn= 3.25D-01
 Coeff-Com:  0.143D+00 0.506D+00 0.351D+00
 Coeff-En:   0.000D+00 0.000D+00 0.100D+01
 Coeff:      0.964D-01 0.341D+00 0.562D+00
 Gap=     0.153 Goal=   None    Shift=    0.000
 RMSDP=1.00D-03 MaxDP=7.20D-02 DE=-4.43D-01 OVMax= 2.83D-01

 Cycle   4  Pass 1  IDiag  1:
 RMSU=  6.85D-04    CP:  9.75D-01  6.53D-01  1.69D-01
 E= -857.031194698577     Delta-E=        0.029940204078 Rises=F Damp=F
 DIIS: error= 3.98D-02 at cycle   4 NSaved=   4.
 NSaved= 4 IEnMin= 3 EnMin= -857.061134902655     IErMin= 2 ErrMin= 2.29D-02
 ErrMax= 3.98D-02  0.00D+00 EMaxC= 1.00D-01 BMatC= 1.64D-01 BMatP= 1.10D-01
 IDIUse=2 WtCom= 0.00D+00 WtEn= 1.00D+00
 Coeff-En:   0.000D+00 0.000D+00 0.547D+00 0.453D+00
 Coeff:      0.000D+00 0.000D+00 0.547D+00 0.453D+00
 Gap=     0.175 Goal=   None    Shift=    0.000
 RMSDP=5.96D-04 MaxDP=5.42D-02 DE= 2.99D-02 OVMax= 1.42D-01

 Cycle   5  Pass 1  IDiag  1:
 RMSU=  1.92D-04    CP:  9.72D-01  5.45D-01  5.58D-01  4.17D-01
 E= -857.153840095300     Delta-E=       -0.122645396722 Rises=F Damp=F
 DIIS: error= 2.59D-03 at cycle   5 NSaved=   5.
 NSaved= 5 IEnMin= 5 EnMin= -857.153840095300     IErMin= 5 ErrMin= 2.59D-03
 ErrMax= 2.59D-03  0.00D+00 EMaxC= 1.00D-01 BMatC= 2.61D-03 BMatP= 1.10D-01
 IDIUse=3 WtCom= 9.74D-01 WtEn= 2.59D-02
 Coeff-Com:  0.415D-02 0.213D-01 0.265D+00 0.219D+00 0.490D+00
 Coeff-En:   0.000D+00 0.000D+00 0.000D+00 0.000D+00 0.100D+01
 Coeff:      0.404D-02 0.208D-01 0.258D+00 0.214D+00 0.503D+00
 Gap=     0.155 Goal=   None    Shift=    0.000
 RMSDP=1.16D-04 MaxDP=7.10D-03 DE=-1.23D-01 OVMax= 1.18D-02

 Cycle   6  Pass 1  IDiag  1:
 RMSU=  7.35D-05    CP:  9.71D-01  5.72D-01  5.91D-01  4.46D-01  6.77D-01
 E= -857.155846244889     Delta-E=       -0.002006149589 Rises=F Damp=F
 DIIS: error= 1.80D-03 at cycle   6 NSaved=   6.
 NSaved= 6 IEnMin= 6 EnMin= -857.155846244889     IErMin= 6 ErrMin= 1.80D-03
 ErrMax= 1.80D-03  0.00D+00 EMaxC= 1.00D-01 BMatC= 6.11D-04 BMatP= 2.61D-03
 IDIUse=3 WtCom= 9.82D-01 WtEn= 1.80D-02
 Coeff-Com: -0.759D-02 0.473D-02 0.484D-01 0.388D-01 0.352D+00 0.564D+00
 Coeff-En:   0.000D+00 0.000D+00 0.000D+00 0.000D+00 0.160D+00 0.840D+00
 Coeff:     -0.745D-02 0.464D-02 0.475D-01 0.381D-01 0.348D+00 0.569D+00
 Gap=     0.155 Goal=   None    Shift=    0.000
 RMSDP=3.74D-05 MaxDP=2.42D-03 DE=-2.01D-03 OVMax= 5.96D-03

 Cycle   7  Pass 1  IDiag  1:
 RMSU=  2.24D-05    CP:  9.71D-01  5.70D-01  5.88D-01  4.52D-01  6.81D-01
                    CP:  6.03D-01
 E= -857.156292778349     Delta-E=       -0.000446533460 Rises=F Damp=F
 DIIS: error= 3.33D-04 at cycle   7 NSaved=   7.
 NSaved= 7 IEnMin= 7 EnMin= -857.156292778349     IErMin= 7 ErrMin= 3.33D-04
 ErrMax= 3.33D-04  0.00D+00 EMaxC= 1.00D-01 BMatC= 3.74D-05 BMatP= 6.11D-04
 IDIUse=3 WtCom= 9.97D-01 WtEn= 3.33D-03
 Coeff-Com: -0.384D-02 0.312D-02 0.164D-01 0.102D-01 0.172D+00 0.324D+00
 Coeff-Com:  0.479D+00
 Coeff-En:   0.000D+00 0.000D+00 0.000D+00 0.000D+00 0.000D+00 0.000D+00
 Coeff-En:   0.100D+01
 Coeff:     -0.383D-02 0.311D-02 0.164D-01 0.102D-01 0.171D+00 0.322D+00
 Coeff:      0.481D+00
 Gap=     0.155 Goal=   None    Shift=    0.000
 RMSDP=1.40D-05 MaxDP=8.32D-04 DE=-4.47D-04 OVMax= 3.24D-03

 Cycle   8  Pass 1  IDiag  1:
 RMSU=  7.67D-06    CP:  9.71D-01  5.69D-01  5.87D-01  4.48D-01  7.15D-01
                    CP:  6.22D-01  6.01D-01
 E= -857.156323091101     Delta-E=       -0.000030312752 Rises=F Damp=F
 DIIS: error= 1.41D-04 at cycle   8 NSaved=   8.
 NSaved= 8 IEnMin= 8 EnMin= -857.156323091101     IErMin= 8 ErrMin= 1.41D-04
 ErrMax= 1.41D-04  0.00D+00 EMaxC= 1.00D-01 BMatC= 5.55D-06 BMatP= 3.74D-05
 IDIUse=3 WtCom= 9.99D-01 WtEn= 1.41D-03
 Coeff-Com: -0.137D-02 0.157D-02 0.484D-02 0.908D-03 0.636D-01 0.133D+00
 Coeff-Com:  0.302D+00 0.495D+00
 Coeff-En:   0.000D+00 0.000D+00 0.000D+00 0.000D+00 0.000D+00 0.000D+00
 Coeff-En:   0.967D-01 0.903D+00
 Coeff:     -0.137D-02 0.157D-02 0.483D-02 0.907D-03 0.635D-01 0.133D+00
 Coeff:      0.302D+00 0.496D+00
 Gap=     0.155 Goal=   None    Shift=    0.000
 RMSDP=4.83D-06 MaxDP=3.23D-04 DE=-3.03D-05 OVMax= 1.64D-03

 Cycle   9  Pass 1  IDiag  1:
 RMSU=  2.62D-06    CP:  9.71D-01  5.69D-01  5.87D-01  4.47D-01  7.22D-01
                    CP:  6.27D-01  6.29D-01  5.21D-01
 E= -857.156327708560     Delta-E=       -0.000004617459 Rises=F Damp=F
 DIIS: error= 5.95D-05 at cycle   9 NSaved=   9.
 NSaved= 9 IEnMin= 9 EnMin= -857.156327708560     IErMin= 9 ErrMin= 5.95D-05
 ErrMax= 5.95D-05  0.00D+00 EMaxC= 1.00D-01 BMatC= 1.02D-06 BMatP= 5.55D-06
 IDIUse=1 WtCom= 1.00D+00 WtEn= 0.00D+00
 Coeff-Com: -0.546D-03 0.788D-03 0.172D-02-0.680D-03 0.266D-01 0.602D-01
 Coeff-Com:  0.160D+00 0.347D+00 0.405D+00
 Coeff:     -0.546D-03 0.788D-03 0.172D-02-0.680D-03 0.266D-01 0.602D-01
 Coeff:      0.160D+00 0.347D+00 0.405D+00
 Gap=     0.155 Goal=   None    Shift=    0.000
 RMSDP=1.73D-06 MaxDP=1.28D-04 DE=-4.62D-06 OVMax= 5.86D-04

 Cycle  10  Pass 1  IDiag  1:
 RMSU=  9.42D-07    CP:  9.71D-01  5.69D-01  5.88D-01  4.47D-01  7.20D-01
                    CP:  6.32D-01  6.24D-01  5.63D-01  5.12D-01
 E= -857.156328587933     Delta-E=       -0.000000879373 Rises=F Damp=F
 DIIS: error= 1.06D-05 at cycle  10 NSaved=  10.
 NSaved=10 IEnMin=10 EnMin= -857.156328587933     IErMin=10 ErrMin= 1.06D-05
 ErrMax= 1.06D-05  0.00D+00 EMaxC= 1.00D-01 BMatC= 3.31D-08 BMatP= 1.02D-06
 IDIUse=1 WtCom= 1.00D+00 WtEn= 0.00D+00
 Coeff-Com: -0.112D-03 0.158D-03 0.473D-03-0.377D-03 0.600D-02 0.147D-01
 Coeff-Com:  0.413D-01 0.108D+00 0.195D+00 0.635D+00
 Coeff:     -0.112D-03 0.158D-03 0.473D-03-0.377D-03 0.600D-02 0.147D-01
 Coeff:      0.413D-01 0.108D+00 0.195D+00 0.635D+00
 Gap=     0.155 Goal=   None    Shift=    0.000
 RMSDP=4.30D-07 MaxDP=1.42D-05 DE=-8.79D-07 OVMax= 6.11D-05

 Cycle  11  Pass 1  IDiag  1:
 RMSU=  2.44D-07    CP:  9.71D-01  5.69D-01  5.88D-01  4.47D-01  7.20D-01
                    CP:  6.31D-01  6.29D-01  5.73D-01  5.29D-01  6.94D-01
 E= -857.156328659405     Delta-E=       -0.000000071472 Rises=F Damp=F
 DIIS: error= 1.07D-06 at cycle  11 NSaved=  11.
 NSaved=11 IEnMin=11 EnMin= -857.156328659405     IErMin=11 ErrMin= 1.07D-06
 ErrMax= 1.07D-06  0.00D+00 EMaxC= 1.00D-01 BMatC= 1.84D-09 BMatP= 3.31D-08
 IDIUse=1 WtCom= 1.00D+00 WtEn= 0.00D+00
 Coeff-Com: -0.181D-04 0.210D-04 0.135D-03-0.131D-03 0.115D-02 0.321D-02
 Coeff-Com:  0.898D-02 0.285D-01 0.680D-01 0.307D+00 0.584D+00
 Coeff:     -0.181D-04 0.210D-04 0.135D-03-0.131D-03 0.115D-02 0.321D-02
 Coeff:      0.898D-02 0.285D-01 0.680D-01 0.307D+00 0.584D+00
 Gap=     0.155 Goal=   None    Shift=    0.000
 RMSDP=9.32D-08 MaxDP=4.99D-06 DE=-7.15D-08 OVMax= 8.05D-06

 Cycle  12  Pass 1  IDiag  1:
 RMSU=  6.55D-08    CP:  9.71D-01  5.69D-01  5.88D-01  4.47D-01  7.20D-01
                    CP:  6.31D-01  6.29D-01  5.74D-01  5.38D-01  7.08D-01
                    CP:  8.08D-01
 E= -857.156328657939     Delta-E=        0.000000001467 Rises=F Damp=F
 DIIS: error= 3.99D-07 at cycle  12 NSaved=  12.
 NSaved=12 IEnMin=11 EnMin= -857.156328659405     IErMin=12 ErrMin= 3.99D-07
 ErrMax= 3.99D-07  0.00D+00 EMaxC= 1.00D-01 BMatC= 1.90D-10 BMatP= 1.84D-09
 IDIUse=1 WtCom= 1.00D+00 WtEn= 0.00D+00
 Coeff-Com:  0.139D-05-0.705D-05 0.212D-04-0.272D-04-0.155D-04 0.170D-03
 Coeff-Com:  0.385D-03 0.371D-02 0.150D-01 0.937D-01 0.303D+00 0.584D+00
 Coeff:      0.139D-05-0.705D-05 0.212D-04-0.272D-04-0.155D-04 0.170D-03
 Coeff:      0.385D-03 0.371D-02 0.150D-01 0.937D-01 0.303D+00 0.584D+00
 Gap=     0.155 Goal=   None    Shift=    0.000
 RMSDP=3.57D-08 MaxDP=1.44D-06 DE= 1.47D-09 OVMax= 1.80D-06

 Cycle  13  Pass 1  IDiag  1:
 RMSU=  1.88D-08    CP:  9.71D-01  5.69D-01  5.88D-01  4.47D-01  7.20D-01
                    CP:  6.32D-01  6.29D-01  5.74D-01  5.41D-01  7.24D-01
                    CP:  7.81D-01  6.63D-01
 E= -857.156328658112     Delta-E=       -0.000000000174 Rises=F Damp=F
 DIIS: error= 1.26D-07 at cycle  13 NSaved=  13.
 NSaved=13 IEnMin=11 EnMin= -857.156328659405     IErMin=13 ErrMin= 1.26D-07
 ErrMax= 1.26D-07  0.00D+00 EMaxC= 1.00D-01 BMatC= 5.20D-12 BMatP= 1.90D-10
 IDIUse=1 WtCom= 1.00D+00 WtEn= 0.00D+00
 Coeff-Com:  0.694D-06-0.243D-05 0.261D-05-0.551D-05-0.324D-04-0.283D-04
 Coeff-Com: -0.721D-04 0.534D-03 0.316D-02 0.244D-01 0.907D-01 0.219D+00
 Coeff-Com:  0.662D+00
 Coeff:      0.694D-06-0.243D-05 0.261D-05-0.551D-05-0.324D-04-0.283D-04
 Coeff:     -0.721D-04 0.534D-03 0.316D-02 0.244D-01 0.907D-01 0.219D+00
 Coeff:      0.662D+00
 Gap=     0.155 Goal=   None    Shift=    0.000
 RMSDP=6.59D-09 MaxDP=2.41D-07 DE=-1.74D-10 OVMax= 4.26D-07

 Error on total polarization charges =  0.02305
 SCF Done:  E(RB-P86) =  -857.156328658     A.U. after   13 cycles
            NFock= 13  Conv=0.66D-08     -V/T= 2.0046
 KE= 8.532708489460D+02 PE=-4.761765953139D+03 EE= 1.666269109091D+03
 Leave Link  502 at Tue Feb 23 00:15:58 2021, MaxMem=   104857600 cpu:            2097.6 elap:              67.3
 (Enter /sw/arch/RedHatEnterpriseServer7/EB_production/2019/software/Gaussian/g16.c01/l601.exe)
 Copying SCF densities to generalized density rwf, IOpCl= 0 IROHF=0.

 **********************************************************************

            Population analysis using the SCF Density.

 **********************************************************************

 Orbital symmetries:
       Occupied  (A) (A) (A) (A) (A) (A) (A) (A) (A) (A) (A) (A)
                 (A) (A) (A) (A) (A) (A) (A) (A) (A) (A) (A) (A)
                 (A) (A) (A) (A) (A) (A) (A) (A) (A) (A) (A) (A)
                 (A) (A) (A) (A) (A) (A) (A) (A) (A) (A) (A) (A)
                 (A) (A) (A) (A) (A) (A) (A) (A) (A) (A) (A) (A)
                 (A) (A) (A) (A) (A) (A) (A) (A) (A) (A) (A) (A)
                 (A) (A) (A) (A) (A) (A) (A)
       Virtual   (A) (A) (A) (A) (A) (A) (A) (A) (A) (A) (A) (A)
                 (A) (A) (A) (A) (A) (A) (A) (A) (A) (A) (A) (A)
                 (A) (A) (A) (A) (A) (A) (A) (A) (A) (A) (A) (A)
                 (A) (A) (A) (A) (A) (A) (A) (A) (A) (A) (A) (A)
                 (A) (A) (A) (A) (A) (A) (A) (A) (A) (A) (A) (A)
                 (A) (A) (A) (A) (A) (A) (A) (A) (A) (A) (A) (A)
                 (A) (A) (A) (A) (A) (A) (A) (A) (A) (A) (A) (A)
                 (A) (A) (A) (A) (A) (A) (A) (A) (A) (A) (A) (A)
                 (A) (A) (A) (A) (A) (A) (A) (A) (A) (A) (A) (A)
                 (A) (A) (A) (A) (A) (A) (A) (A) (A) (A) (A) (A)
                 (A) (A) (A) (A) (A) (A) (A) (A) (A) (A) (A) (A)
                 (A) (A) (A) (A) (A) (A) (A) (A) (A) (A) (A) (A)
                 (A) (A) (A) (A) (A) (A) (A) (A) (A) (A) (A) (A)
                 (A) (A) (A) (A) (A) (A) (A) (A) (A) (A) (A) (A)
                 (A) (A) (A) (A) (A) (A) (A) (A) (A) (A) (A) (A)
                 (A) (A) (A) (A) (A) (A) (A) (A) (A) (A) (A) (A)
                 (A) (A) (A) (A) (A) (A) (A) (A) (A) (A) (A) (A)
                 (A) (A) (A) (A) (A) (A) (A) (A) (A) (A) (A) (A)
                 (A) (A) (A) (A) (A) (A) (A) (A) (A) (A) (A) (A)
                 (A) (A) (A) (A) (A) (A) (A) (A) (A) (A) (A) (A)
                 (A) (A) (A) (A) (A) (A) (A) (A) (A) (A) (A) (A)
                 (A) (A) (A) (A) (A) (A) (A) (A) (A) (A) (A) (A)
                 (A) (A) (A) (A) (A) (A) (A) (A) (A) (A) (A) (A)
                 (A) (A) (A) (A) (A) (A) (A) (A) (A) (A) (A) (A)
                 (A) (A) (A) (A) (A) (A) (A) (A) (A) (A) (A) (A)
                 (A) (A) (A) (A) (A) (A) (A) (A) (A) (A) (A) (A)
                 (A) (A) (A) (A) (A) (A) (A) (A) (A) (A) (A) (A)
                 (A) (A) (A) (A) (A) (A) (A) (A) (A) (A) (A) (A)
                 (A) (A) (A) (A) (A) (A) (A) (A) (A) (A) (A) (A)
                 (A) (A) (A) (A) (A) (A) (A) (A) (A) (A) (A) (A)
                 (A) (A) (A) (A) (A) (A) (A) (A) (A) (A) (A) (A)
                 (A) (A) (A) (A) (A) (A) (A) (A) (A) (A) (A) (A)
                 (A) (A) (A) (A) (A) (A) (A) (A) (A) (A) (A) (A)
                 (A) (A) (A) (A) (A) (A) (A) (A) (A) (A) (A) (A)
                 (A) (A) (A) (A) (A) (A) (A) (A) (A) (A) (A) (A)
                 (A) (A) (A) (A) (A) (A) (A) (A) (A) (A) (A) (A)
                 (A) (A) (A) (A) (A) (A) (A) (A) (A) (A) (A) (A)
                 (A) (A) (A) (A) (A) (A) (A) (A) (A) (A) (A) (A)
                 (A) (A) (A) (A) (A) (A) (A) (A) (A) (A) (A) (A)
                 (A) (A) (A) (A) (A) (A) (A) (A) (A) (A) (A) (A)
                 (A) (A) (A) (A) (A) (A) (A) (A) (A) (A) (A) (A)
                 (A) (A) (A) (A) (A) (A) (A) (A) (A) (A) (A) (A)
                 (A)
 The electronic state is 1-A.
 Alpha  occ. eigenvalues --  -18.82195 -18.75732 -10.03449  -9.91576  -9.90655
 Alpha  occ. eigenvalues --   -9.89517  -9.89240  -9.89157  -9.88991  -9.88983
 Alpha  occ. eigenvalues --   -9.88837  -9.88784  -9.88772  -9.88756  -9.88689
 Alpha  occ. eigenvalues --   -9.88673  -9.88662  -9.88069  -9.87497  -9.87347
 Alpha  occ. eigenvalues --   -1.01588  -0.92287  -0.75194  -0.74366  -0.73228
 Alpha  occ. eigenvalues --   -0.72010  -0.70617  -0.68727  -0.66636  -0.64324
 Alpha  occ. eigenvalues --   -0.62002  -0.59500  -0.57728  -0.55895  -0.53755
 Alpha  occ. eigenvalues --   -0.52972  -0.52174  -0.51826  -0.51537  -0.48167
 Alpha  occ. eigenvalues --   -0.45495  -0.44430  -0.43682  -0.43567  -0.42411
 Alpha  occ. eigenvalues --   -0.41929  -0.41473  -0.40431  -0.39354  -0.39182
 Alpha  occ. eigenvalues --   -0.37995  -0.37481  -0.37078  -0.36352  -0.35878
 Alpha  occ. eigenvalues --   -0.35733  -0.34670  -0.34042  -0.33610  -0.33452
 Alpha  occ. eigenvalues --   -0.32392  -0.32164  -0.31276  -0.30835  -0.30391
 Alpha  occ. eigenvalues --   -0.30183  -0.29894  -0.29202  -0.29051  -0.28931
 Alpha  occ. eigenvalues --   -0.28678  -0.28467  -0.28410  -0.28351  -0.28225
 Alpha  occ. eigenvalues --   -0.27307  -0.25917  -0.23461  -0.20981
 Alpha virt. eigenvalues --   -0.05466  -0.02599   0.01289   0.01810   0.02278
 Alpha virt. eigenvalues --    0.03012   0.03820   0.04363   0.04697   0.04932
 Alpha virt. eigenvalues --    0.05400   0.05662   0.05889   0.06548   0.06665
 Alpha virt. eigenvalues --    0.07158   0.07998   0.08563   0.08952   0.09651
 Alpha virt. eigenvalues --    0.10064   0.10406   0.10626   0.10844   0.11002
 Alpha virt. eigenvalues --    0.11232   0.11558   0.11730   0.11844   0.12128
 Alpha virt. eigenvalues --    0.12279   0.12417   0.12767   0.13077   0.13285
 Alpha virt. eigenvalues --    0.13426   0.13810   0.14574   0.15109   0.15218
 Alpha virt. eigenvalues --    0.15383   0.15752   0.16130   0.16417   0.16971
 Alpha virt. eigenvalues --    0.17416   0.17790   0.18462   0.19390   0.19607
 Alpha virt. eigenvalues --    0.19771   0.21021   0.21456   0.21945   0.22532
 Alpha virt. eigenvalues --    0.22821   0.23566   0.23963   0.24130   0.24571
 Alpha virt. eigenvalues --    0.25336   0.25542   0.25969   0.26072   0.26531
 Alpha virt. eigenvalues --    0.26657   0.26836   0.27294   0.27750   0.27756
 Alpha virt. eigenvalues --    0.28291   0.28337   0.28968   0.29373   0.29861
 Alpha virt. eigenvalues --    0.30255   0.30375   0.31177   0.32080   0.33157
 Alpha virt. eigenvalues --    0.33241   0.34311   0.34540   0.34842   0.35421
 Alpha virt. eigenvalues --    0.35524   0.36181   0.37158   0.37368   0.37685
 Alpha virt. eigenvalues --    0.37774   0.37992   0.38503   0.38936   0.39128
 Alpha virt. eigenvalues --    0.39456   0.39660   0.40116   0.40624   0.40797
 Alpha virt. eigenvalues --    0.41045   0.41274   0.41665   0.42022   0.42712
 Alpha virt. eigenvalues --    0.42770   0.43437   0.43507   0.43643   0.43662
 Alpha virt. eigenvalues --    0.43930   0.44226   0.44779   0.44855   0.45131
 Alpha virt. eigenvalues --    0.45533   0.45659   0.46206   0.46486   0.46756
 Alpha virt. eigenvalues --    0.46852   0.47120   0.47315   0.47432   0.47869
 Alpha virt. eigenvalues --    0.48047   0.48339   0.48751   0.48803   0.49565
 Alpha virt. eigenvalues --    0.50028   0.50261   0.50579   0.50998   0.51269
 Alpha virt. eigenvalues --    0.51786   0.52225   0.52876   0.53755   0.54213
 Alpha virt. eigenvalues --    0.54952   0.55651   0.57081   0.57266   0.57826
 Alpha virt. eigenvalues --    0.58749   0.59225   0.59273   0.59962   0.60305
 Alpha virt. eigenvalues --    0.61666   0.61999   0.63128   0.63941   0.64598
 Alpha virt. eigenvalues --    0.65272   0.66445   0.66656   0.68713   0.70487
 Alpha virt. eigenvalues --    0.71970   0.72091   0.73004   0.74830   0.76065
 Alpha virt. eigenvalues --    0.77365   0.80253   0.81159   0.86423   1.04992
 Alpha virt. eigenvalues --    1.05673   1.08556   1.09223   1.09633   1.11233
 Alpha virt. eigenvalues --    1.13526   1.14951   1.16567   1.16921   1.17764
 Alpha virt. eigenvalues --    1.18110   1.18170   1.18884   1.18942   1.19553
 Alpha virt. eigenvalues --    1.19721   1.19943   1.20195   1.20796   1.22286
 Alpha virt. eigenvalues --    1.22883   1.23313   1.23552   1.24002   1.24360
 Alpha virt. eigenvalues --    1.24415   1.24913   1.25001   1.25389   1.25975
 Alpha virt. eigenvalues --    1.26516   1.26651   1.27703   1.28216   1.28863
 Alpha virt. eigenvalues --    1.29151   1.29857   1.30348   1.30662   1.31696
 Alpha virt. eigenvalues --    1.32040   1.32413   1.32802   1.33297   1.33561
 Alpha virt. eigenvalues --    1.34955   1.35193   1.35348   1.35917   1.36231
 Alpha virt. eigenvalues --    1.36593   1.36618   1.37229   1.37575   1.38113
 Alpha virt. eigenvalues --    1.39240   1.40054   1.40219   1.40823   1.41671
 Alpha virt. eigenvalues --    1.42244   1.42817   1.43215   1.43934   1.44837
 Alpha virt. eigenvalues --    1.45118   1.45305   1.45683   1.46384   1.46518
 Alpha virt. eigenvalues --    1.47288   1.48069   1.48293   1.48913   1.49501
 Alpha virt. eigenvalues --    1.50242   1.51012   1.51687   1.52641   1.53296
 Alpha virt. eigenvalues --    1.53641   1.54393   1.55102   1.55322   1.56439
 Alpha virt. eigenvalues --    1.57655   1.57916   1.58647   1.59296   1.59726
 Alpha virt. eigenvalues --    1.59988   1.60813   1.61456   1.62518   1.64683
 Alpha virt. eigenvalues --    1.65894   1.66026   1.66128   1.66358   1.66557
 Alpha virt. eigenvalues --    1.67520   1.68113   1.68684   1.69350   1.70928
 Alpha virt. eigenvalues --    1.71339   1.71849   1.72998   1.73394   1.73804
 Alpha virt. eigenvalues --    1.73900   1.74304   1.74830   1.75636   1.76278
 Alpha virt. eigenvalues --    1.76424   1.76969   1.77466   1.77525   1.77592
 Alpha virt. eigenvalues --    1.77943   1.78264   1.78437   1.78546   1.78809
 Alpha virt. eigenvalues --    1.79302   1.79736   1.79958   1.80454   1.80624
 Alpha virt. eigenvalues --    1.80925   1.81742   1.81952   1.82215   1.82289
 Alpha virt. eigenvalues --    1.82425   1.82668   1.83053   1.83167   1.84012
 Alpha virt. eigenvalues --    1.85256   1.85745   1.87401   1.90182   1.90491
 Alpha virt. eigenvalues --    1.91591   1.92766   1.95491   1.96830   1.97359
 Alpha virt. eigenvalues --    1.98101   2.00212   2.01843   2.02494   2.02705
 Alpha virt. eigenvalues --    2.04637   2.05248   2.07230   2.08078   2.09072
 Alpha virt. eigenvalues --    2.09374   2.10578   2.10968   2.11703   2.12134
 Alpha virt. eigenvalues --    2.12542   2.12916   2.13939   2.15417   2.15710
 Alpha virt. eigenvalues --    2.16788   2.17961   2.18477   2.18851   2.18957
 Alpha virt. eigenvalues --    2.20269   2.22030   2.22214   2.24558   2.25370
 Alpha virt. eigenvalues --    2.25944   2.26889   2.27318   2.29288   2.30029
 Alpha virt. eigenvalues --    2.31326   2.32208   2.33014   2.33823   2.35511
 Alpha virt. eigenvalues --    2.35987   2.36384   2.37187   2.38855   2.39929
 Alpha virt. eigenvalues --    2.40346   2.41172   2.43350   2.45762   2.46237
 Alpha virt. eigenvalues --    2.46950   2.47212   2.48123   2.48571   2.48931
 Alpha virt. eigenvalues --    2.49064   2.49325   2.49497   2.50293   2.50954
 Alpha virt. eigenvalues --    2.51245   2.51676   2.51737   2.52440   2.52535
 Alpha virt. eigenvalues --    2.52761   2.53172   2.53739   2.54311   2.54647
 Alpha virt. eigenvalues --    2.54890   2.55281   2.55562   2.56331   2.56691
 Alpha virt. eigenvalues --    2.57001   2.57237   2.58064   2.58535   2.58763
 Alpha virt. eigenvalues --    2.59448   2.60362   2.60944   2.61070   2.61917
 Alpha virt. eigenvalues --    2.62287   2.62935   2.63673   2.63994   2.64683
 Alpha virt. eigenvalues --    2.65551   2.66284   2.66838   2.67356   2.67551
 Alpha virt. eigenvalues --    2.68205   2.68446   2.69269   2.69919   2.70374
 Alpha virt. eigenvalues --    2.70554   2.71785   2.73106   2.74270   2.75634
 Alpha virt. eigenvalues --    2.75995   2.76639   2.79405   2.82562   2.84579
 Alpha virt. eigenvalues --    2.85381   2.88700   2.90170   2.92900   2.96440
 Alpha virt. eigenvalues --    2.97086   3.01117   3.02832   3.02899   3.03882
 Alpha virt. eigenvalues --    3.06458   3.07430   3.09162   3.09381   3.11613
 Alpha virt. eigenvalues --    3.14405   3.15753   3.17231   3.18673   3.20333
 Alpha virt. eigenvalues --    3.22141   3.23894   3.24290   3.27316   3.27872
 Alpha virt. eigenvalues --    3.28237   3.28977   3.29464   3.30478   3.30816
 Alpha virt. eigenvalues --    3.31182   3.31889   3.32217   3.33155   3.33719
 Alpha virt. eigenvalues --    3.34412   3.34803   3.34989   3.35525   3.35738
 Alpha virt. eigenvalues --    3.36095   3.36366   3.39110   3.39450   3.42315
 Alpha virt. eigenvalues --    3.42910   3.43455   3.44451   3.45953   3.48756
 Alpha virt. eigenvalues --    3.50222   3.61157   3.83194   4.00179   4.17334
 Alpha virt. eigenvalues --   21.54147  21.67089  21.74865  21.74964  21.76646
 Alpha virt. eigenvalues --   21.77762  21.78859  21.80945  21.81375  21.82658
 Alpha virt. eigenvalues --   21.83479  21.84939  21.85458  21.87148  21.88360
 Alpha virt. eigenvalues --   21.89303  21.90424  22.07226  43.05506  43.11989
          Condensed to atoms (all electrons):
 Mulliken charges:
               1
     1  C   -0.399729
     2  C   -0.231853
     3  C   -0.252051
     4  C   -0.242488
     5  C   -0.250229
     6  C   -0.246370
     7  C   -0.296816
     8  C   -0.247981
     9  C   -0.214101
    10  C   -0.153718
    11  C   -0.258788
    12  C   -0.293156
    13  C   -0.259338
    14  C   -0.243341
    15  C   -0.253780
    16  C   -0.269450
    17  C   -0.251256
    18  C    0.209353
    19  O   -0.370944
    20  O   -0.285686
    21  H    0.138923
    22  H    0.127349
    23  H    0.127387
    24  H    0.124731
    25  H    0.124779
    26  H    0.120910
    27  H    0.121001
    28  H    0.122238
    29  H    0.122861
    30  H    0.123906
    31  H    0.124199
    32  H    0.125386
    33  H    0.124160
    34  H    0.133451
    35  H    0.134185
    36  H    0.147776
    37  H    0.146288
    38  H    0.165459
    39  H    0.153433
    40  H    0.144779
    41  H    0.151515
    42  H    0.135628
    43  H    0.145998
    44  H    0.129137
    45  H    0.131037
    46  H    0.130027
    47  H    0.128682
    48  H    0.132068
    49  H    0.132261
    50  H    0.143231
    51  H    0.142781
    52  H    0.146056
    53  H    0.176605
    54  H    0.333499
 Sum of Mulliken charges =  -0.00000
 Mulliken charges with hydrogens summed into heavy atoms:
               1
     1  C   -0.006070
     2  C    0.017657
     3  C   -0.010140
     4  C    0.002610
     5  C   -0.002124
     6  C    0.003175
     7  C   -0.029180
     8  C    0.046082
     9  C   -0.048643
    10  C   -0.000286
    11  C    0.037506
    12  C   -0.011530
    13  C    0.000836
    14  C    0.015369
    15  C    0.010549
    16  C    0.016562
    17  C    0.071405
    18  C    0.209353
    19  O   -0.370944
    20  O    0.047813
 Electronic spatial extent (au):  <R**2>=          19879.0188
 Charge=             -0.0000 electrons
 Dipole moment (field-independent basis, Debye):
    X=              1.9957    Y=             -1.1363    Z=              1.4903  Tot=              2.7377
 Quadrupole moment (field-independent basis, Debye-Ang):
   XX=           -162.0448   YY=           -122.4101   ZZ=           -131.1109
   XY=              3.6515   XZ=            -10.2328   YZ=              1.1625
 Traceless Quadrupole moment (field-independent basis, Debye-Ang):
   XX=            -23.5229   YY=             16.1118   ZZ=              7.4111
   XY=              3.6515   XZ=            -10.2328   YZ=              1.1625
 Octapole moment (field-independent basis, Debye-Ang**2):
  XXX=            253.5671  YYY=            -89.9337  ZZZ=              0.7943  XYY=           -119.2932
  XXY=            -21.4705  XXZ=            104.6760  XZZ=            -10.4862  YZZ=            -12.3407
  YYZ=            -20.2829  XYZ=             -2.1553
 Hexadecapole moment (field-independent basis, Debye-Ang**3):
 XXXX=         -25440.9367 YYYY=          -4689.6301 ZZZZ=           -404.9193 XXXY=            487.1948
 XXXZ=           -669.1428 YYYX=            658.2398 YYYZ=             70.9077 ZZZX=              4.7316
 ZZZY=             10.0151 XXYY=          -3814.8012 XXZZ=          -3703.5755 YYZZ=           -910.0619
 XXYZ=            -12.2841 YYXZ=            105.3971 ZZXY=             51.5956
 N-N= 1.385069666445D+03 E-N=-4.761765945875D+03  KE= 8.532708489460D+02
 No NMR shielding tensors so no spin-rotation constants.
 Leave Link  601 at Tue Feb 23 00:15:59 2021, MaxMem=   104857600 cpu:              13.0 elap:               0.6
 (Enter /sw/arch/RedHatEnterpriseServer7/EB_production/2019/software/Gaussian/g16.c01/l701.exe)
 ... and contract with generalized density number  0.
 Compute integral first derivatives.
 R6Disp: Adding Grimme-D3 dispersion energy 1st derivatives to the gradient.
 PrsmSu:  requested number of processors reduced to:  25 ShMem   1 Linda.
 D1PCM: PCM CHGder 1st derivatives, ID1Alg=3 FixD1E=F DoIter=F DoCFld=F I1PDM=0.
 GePol: Maximum number of non-zero 1st derivatives   =     230
 CoulSu:  requested number of processors reduced to:  25 ShMem   1 Linda.
 CoulSu:  requested number of processors reduced to:  26 ShMem   1 Linda.
 Leave Link  701 at Tue Feb 23 00:16:01 2021, MaxMem=   104857600 cpu:              68.5 elap:               2.2
 (Enter /sw/arch/RedHatEnterpriseServer7/EB_production/2019/software/Gaussian/g16.c01/l702.exe)
 L702 exits ... SP integral derivatives will be done elsewhere.
 Leave Link  702 at Tue Feb 23 00:16:01 2021, MaxMem=   104857600 cpu:               0.9 elap:               0.1
 (Enter /sw/arch/RedHatEnterpriseServer7/EB_production/2019/software/Gaussian/g16.c01/l703.exe)
 Integral derivatives from FoFJK, PRISM(SPDF).
 Compute integral first derivatives, UseDBF=F ICtDFT=           0.
 Calling FoFJK, ICntrl=      2527 FMM=F ISym2X=0 I1Cent= 0 IOpClX= 0 NMat=1 NMatS=1 NMatT=0.
 FoFJK:  IHMeth= 1 ICntrl=    2527 DoSepK=F KAlg= 0 I1Cent=           0 FoldK=F
 IRaf=         0 NMat=       1 IRICut=       1 DoRegI=T DoRafI=F ISym2E= 0 IDoP0=0 IntGTp=1.
 FoFCou: FMM=F IPFlag=           0 FMFlag=      100000 FMFlg1=         800
         NFxFlg=           0 DoJE=F BraDBF=F KetDBF=F FulRan=T
         wScrn=  0.000000 ICntrl=      2527 IOpCl=  0 I1Cent=           0 NGrid=           0
         NMat0=    1 NMatS0=      1 NMatT0=    0 NMatD0=    1 NMtDS0=    0 NMtDT0=    0
 Symmetry not used in FoFCou.
 Leave Link  703 at Tue Feb 23 00:16:12 2021, MaxMem=   104857600 cpu:             331.3 elap:              10.5
 (Enter /sw/arch/RedHatEnterpriseServer7/EB_production/2019/software/Gaussian/g16.c01/l716.exe)
[...]
 - repulsion  energy not included in the total energy.
 After PCM corrections, the energy is  -857.146070448     a.u.
 --------------------------------------------------------------------
 Writing COSMO formatted file "ZQPPMHVWECSIRJ-KTKRTIGZSA-N.cosmo"
 Recomputed dielectric energy= -0.018161 old= -0.018157 diff=-3.64D-06

 **********************************************************************

            Population analysis using the SCF Density.

 **********************************************************************

 Orbital symmetries:
       Occupied  (A) (A) (A) (A) (A) (A) (A) (A) (A) (A) (A) (A)
                 (A) (A) (A) (A) (A) (A) (A) (A) (A) (A) (A) (A)
                 (A) (A) (A) (A) (A) (A) (A) (A) (A) (A) (A) (A)
                 (A) (A) (A) (A) (A) (A) (A) (A) (A) (A) (A) (A)
                 (A) (A) (A) (A) (A) (A) (A) (A) (A) (A) (A) (A)
                 (A) (A) (A) (A) (A) (A) (A) (A) (A) (A) (A) (A)
                 (A) (A) (A) (A) (A) (A) (A)
       Virtual   (A) (A) (A) (A) (A) (A) (A) (A) (A) (A) (A) (A)
                 (A) (A) (A) (A) (A) (A) (A) (A) (A) (A) (A) (A)
                 (A) (A) (A) (A) (A) (A) (A) (A) (A) (A) (A) (A)
                 (A) (A) (A) (A) (A) (A) (A) (A) (A) (A) (A) (A)
                 (A) (A) (A) (A) (A) (A) (A) (A) (A) (A) (A) (A)
                 (A) (A) (A) (A) (A) (A) (A) (A) (A) (A) (A) (A)
                 (A) (A) (A) (A) (A) (A) (A) (A) (A) (A) (A) (A)
                 (A) (A) (A) (A) (A) (A) (A) (A) (A) (A) (A) (A)
                 (A) (A) (A) (A) (A) (A) (A) (A) (A) (A) (A) (A)
                 (A) (A) (A) (A) (A) (A) (A) (A) (A) (A) (A) (A)
                 (A) (A) (A) (A) (A) (A) (A) (A) (A) (A) (A) (A)
                 (A) (A) (A) (A) (A) (A) (A) (A) (A) (A) (A) (A)
                 (A) (A) (A) (A) (A) (A) (A) (A) (A) (A) (A) (A)
                 (A) (A) (A) (A) (A) (A) (A) (A) (A) (A) (A) (A)
                 (A) (A) (A) (A) (A) (A) (A) (A) (A) (A) (A) (A)
                 (A) (A) (A) (A) (A) (A) (A) (A) (A) (A) (A) (A)
                 (A) (A) (A) (A) (A) (A) (A) (A) (A) (A) (A) (A)
                 (A) (A) (A) (A) (A) (A) (A) (A) (A) (A) (A) (A)
                 (A) (A) (A) (A) (A) (A) (A) (A) (A) (A) (A) (A)
                 (A) (A) (A) (A) (A) (A) (A) (A) (A) (A) (A) (A)
                 (A) (A) (A) (A) (A) (A) (A) (A) (A) (A) (A) (A)
                 (A) (A) (A) (A) (A) (A) (A) (A) (A) (A) (A) (A)
                 (A) (A) (A) (A) (A) (A) (A) (A) (A) (A) (A) (A)
                 (A) (A) (A) (A) (A) (A) (A) (A) (A) (A) (A) (A)
                 (A) (A) (A) (A) (A) (A) (A) (A) (A) (A) (A) (A)
                 (A) (A) (A) (A) (A) (A) (A) (A) (A) (A) (A) (A)
                 (A) (A) (A) (A) (A) (A) (A) (A) (A) (A) (A) (A)
                 (A) (A) (A) (A) (A) (A) (A) (A) (A) (A) (A) (A)
                 (A) (A) (A) (A) (A) (A) (A) (A) (A) (A) (A) (A)
                 (A) (A) (A) (A) (A) (A) (A) (A) (A) (A) (A) (A)
                 (A) (A) (A) (A) (A) (A) (A) (A) (A) (A) (A) (A)
                 (A) (A) (A) (A) (A) (A) (A) (A) (A) (A) (A) (A)
                 (A) (A) (A) (A) (A) (A) (A) (A) (A) (A) (A) (A)
                 (A) (A) (A) (A) (A) (A) (A) (A) (A) (A) (A) (A)
                 (A) (A) (A) (A) (A) (A) (A) (A) (A) (A) (A) (A)
                 (A) (A) (A) (A) (A) (A) (A) (A) (A) (A) (A) (A)
                 (A) (A) (A) (A) (A) (A) (A) (A) (A) (A) (A) (A)
                 (A) (A) (A) (A) (A) (A) (A) (A) (A) (A) (A) (A)
                 (A) (A) (A) (A) (A) (A) (A) (A) (A) (A) (A) (A)
                 (A) (A) (A) (A) (A) (A) (A) (A) (A) (A) (A) (A)
                 (A) (A) (A) (A) (A) (A) (A) (A) (A) (A) (A) (A)
                 (A) (A) (A) (A) (A) (A) (A) (A) (A) (A) (A) (A)
                 (A)
 The electronic state is 1-A.
 Alpha  occ. eigenvalues --  -18.81847 -18.76990 -10.03213  -9.91017  -9.89460
 Alpha  occ. eigenvalues --   -9.89133  -9.89123  -9.89116  -9.89070  -9.88915
 Alpha  occ. eigenvalues --   -9.88912  -9.88894  -9.88715  -9.88676  -9.88644
 Alpha  occ. eigenvalues --   -9.88587  -9.88530  -9.88491  -9.88468  -9.88055
 Alpha  occ. eigenvalues --   -1.02056  -0.93887  -0.74378  -0.73765  -0.72962
 Alpha  occ. eigenvalues --   -0.71664  -0.70178  -0.68232  -0.66228  -0.63733
 Alpha  occ. eigenvalues --   -0.61587  -0.58632  -0.56924  -0.53914  -0.53050
 Alpha  occ. eigenvalues --   -0.51639  -0.51450  -0.51321  -0.51046  -0.46710
 Alpha  occ. eigenvalues --   -0.44972  -0.44294  -0.43911  -0.43390  -0.42739
 Alpha  occ. eigenvalues --   -0.41751  -0.40493  -0.39340  -0.38860  -0.37956
 Alpha  occ. eigenvalues --   -0.37703  -0.37266  -0.37068  -0.36435  -0.35825
 Alpha  occ. eigenvalues --   -0.34959  -0.34297  -0.34060  -0.33553  -0.32632
 Alpha  occ. eigenvalues --   -0.32343  -0.31253  -0.30709  -0.30551  -0.30047
 Alpha  occ. eigenvalues --   -0.29572  -0.29216  -0.28865  -0.28688  -0.28541
 Alpha  occ. eigenvalues --   -0.28185  -0.28068  -0.27773  -0.27558  -0.27447
 Alpha  occ. eigenvalues --   -0.27338  -0.26291  -0.24806  -0.21486
 Alpha virt. eigenvalues --   -0.04545  -0.02116   0.01661   0.02391   0.02838
 Alpha virt. eigenvalues --    0.03532   0.04093   0.04257   0.04672   0.05074
 Alpha virt. eigenvalues --    0.05633   0.05763   0.06231   0.06574   0.06955
 Alpha virt. eigenvalues --    0.07437   0.08366   0.08501   0.09544   0.10054
 Alpha virt. eigenvalues --    0.10147   0.10543   0.10776   0.11448   0.11479
 Alpha virt. eigenvalues --    0.11657   0.11847   0.12072   0.12155   0.12245
 Alpha virt. eigenvalues --    0.12323   0.12763   0.13236   0.13697   0.13882
 Alpha virt. eigenvalues --    0.14179   0.14235   0.14431   0.14665   0.14942
 Alpha virt. eigenvalues --    0.15358   0.16177   0.16675   0.16888   0.17262
 Alpha virt. eigenvalues --    0.17828   0.17930   0.18732   0.19209   0.19585
 Alpha virt. eigenvalues --    0.19761   0.20801   0.21249   0.21840   0.22379
 Alpha virt. eigenvalues --    0.22729   0.23112   0.23838   0.24601   0.25072
 Alpha virt. eigenvalues --    0.25657   0.25758   0.26228   0.26543   0.26772
 Alpha virt. eigenvalues --    0.27203   0.27541   0.27699   0.28058   0.28264
 Alpha virt. eigenvalues --    0.28521   0.29128   0.29502   0.29640   0.30245
 Alpha virt. eigenvalues --    0.30490   0.31320   0.31545   0.32495   0.33055
 Alpha virt. eigenvalues --    0.33415   0.34314   0.35332   0.35897   0.35902
 Alpha virt. eigenvalues --    0.36206   0.36959   0.37150   0.37412   0.37644
 Alpha virt. eigenvalues --    0.37764   0.38051   0.38481   0.38690   0.39443
 Alpha virt. eigenvalues --    0.39578   0.39805   0.40082   0.40736   0.41207
 Alpha virt. eigenvalues --    0.41471   0.41607   0.42017   0.42199   0.42256
 Alpha virt. eigenvalues --    0.42729   0.43326   0.43478   0.43681   0.43770
 Alpha virt. eigenvalues --    0.43995   0.44249   0.44404   0.45292   0.45466
 Alpha virt. eigenvalues --    0.45871   0.46032   0.46402   0.46762   0.46868
 Alpha virt. eigenvalues --    0.47055   0.47467   0.47550   0.47765   0.47891
 Alpha virt. eigenvalues --    0.48258   0.48381   0.48675   0.48847   0.49110
 Alpha virt. eigenvalues --    0.49375   0.49666   0.50668   0.50710   0.51661
 Alpha virt. eigenvalues --    0.52153   0.52441   0.53659   0.54349   0.55235
 Alpha virt. eigenvalues --    0.55533   0.55912   0.56225   0.57361   0.57749
 Alpha virt. eigenvalues --    0.59462   0.59755   0.61188   0.61232   0.61480
 Alpha virt. eigenvalues --    0.62072   0.62915   0.63430   0.64096   0.64463
 Alpha virt. eigenvalues --    0.64897   0.65815   0.68084   0.70123   0.70976
 Alpha virt. eigenvalues --    0.71525   0.72562   0.73105   0.75514   0.75796
 Alpha virt. eigenvalues --    0.77859   0.78789   0.81409   0.91075   1.05700
 Alpha virt. eigenvalues --    1.06709   1.07034   1.09110   1.09863   1.11635
 Alpha virt. eigenvalues --    1.12732   1.15705   1.16590   1.16947   1.17802
 Alpha virt. eigenvalues --    1.17939   1.18748   1.19303   1.19547   1.19694
 Alpha virt. eigenvalues --    1.19737   1.20372   1.20997   1.21419   1.22231
 Alpha virt. eigenvalues --    1.22662   1.23402   1.23451   1.23952   1.24266
 Alpha virt. eigenvalues --    1.24597   1.25006   1.25238   1.25391   1.26363
 Alpha virt. eigenvalues --    1.26721   1.27491   1.27727   1.28858   1.29630
 Alpha virt. eigenvalues --    1.29929   1.30466   1.30562   1.31005   1.31829
 Alpha virt. eigenvalues --    1.31987   1.32676   1.32955   1.33085   1.33502
 Alpha virt. eigenvalues --    1.35111   1.35692   1.35861   1.36276   1.36715
 Alpha virt. eigenvalues --    1.37245   1.37475   1.37536   1.37999   1.38493
 Alpha virt. eigenvalues --    1.38775   1.39050   1.39616   1.40738   1.41367
 Alpha virt. eigenvalues --    1.42193   1.42722   1.43397   1.43564   1.44542
 Alpha virt. eigenvalues --    1.44550   1.45250   1.45977   1.46664   1.46973
 Alpha virt. eigenvalues --    1.47705   1.48255   1.48721   1.49483   1.49745
 Alpha virt. eigenvalues --    1.50109   1.50242   1.51196   1.51903   1.52556
 Alpha virt. eigenvalues --    1.54400   1.54673   1.54886   1.55485   1.56812
 Alpha virt. eigenvalues --    1.58429   1.59284   1.59994   1.60416   1.61835
 Alpha virt. eigenvalues --    1.62461   1.63017   1.63340   1.64869   1.65641
 Alpha virt. eigenvalues --    1.66273   1.66357   1.66562   1.66872   1.67309
 Alpha virt. eigenvalues --    1.68010   1.68293   1.69028   1.70278   1.70872
 Alpha virt. eigenvalues --    1.71151   1.71874   1.72174   1.72532   1.72910
 Alpha virt. eigenvalues --    1.73146   1.73309   1.73668   1.74449   1.75538
 Alpha virt. eigenvalues --    1.75659   1.75946   1.76341   1.76903   1.77225
 Alpha virt. eigenvalues --    1.77821   1.78017   1.78364   1.78604   1.79169
 Alpha virt. eigenvalues --    1.79238   1.79891   1.80060   1.80404   1.80635
 Alpha virt. eigenvalues --    1.80898   1.81375   1.81489   1.81624   1.81894
 Alpha virt. eigenvalues --    1.82295   1.82513   1.82613   1.83645   1.84063
 Alpha virt. eigenvalues --    1.84976   1.86288   1.87792   1.88132   1.89168
 Alpha virt. eigenvalues --    1.91044   1.93465   1.93710   1.93746   1.97128
 Alpha virt. eigenvalues --    1.98203   2.00114   2.00509   2.01424   2.01915
 Alpha virt. eigenvalues --    2.03594   2.03875   2.05147   2.07801   2.08705
 Alpha virt. eigenvalues --    2.09522   2.10228   2.10430   2.11109   2.12152
 Alpha virt. eigenvalues --    2.12550   2.14013   2.14100   2.14687   2.15537
 Alpha virt. eigenvalues --    2.16886   2.17167   2.18324   2.19226   2.19369
 Alpha virt. eigenvalues --    2.20437   2.21591   2.23155   2.24133   2.25844
 Alpha virt. eigenvalues --    2.26230   2.28357   2.29085   2.30900   2.31302
 Alpha virt. eigenvalues --    2.31892   2.32693   2.33549   2.34062   2.35555
 Alpha virt. eigenvalues --    2.36622   2.37136   2.37665   2.38682   2.39827
 Alpha virt. eigenvalues --    2.40843   2.42732   2.43719   2.44844   2.45011
 Alpha virt. eigenvalues --    2.45677   2.46204   2.47259   2.47363   2.47896
 Alpha virt. eigenvalues --    2.48392   2.48835   2.49426   2.49830   2.50165
 Alpha virt. eigenvalues --    2.50425   2.50700   2.51175   2.51518   2.51771
 Alpha virt. eigenvalues --    2.52038   2.52209   2.52724   2.53224   2.53610
 Alpha virt. eigenvalues --    2.54027   2.54304   2.54769   2.55302   2.55717
 Alpha virt. eigenvalues --    2.56387   2.56804   2.57435   2.57665   2.57943
 Alpha virt. eigenvalues --    2.58757   2.59478   2.59602   2.59914   2.60302
 Alpha virt. eigenvalues --    2.60410   2.61293   2.62075   2.62915   2.63600
 Alpha virt. eigenvalues --    2.64000   2.65176   2.65991   2.67069   2.67155
 Alpha virt. eigenvalues --    2.67943   2.68704   2.69353   2.69518   2.70079
 Alpha virt. eigenvalues --    2.70456   2.71507   2.71610   2.73827   2.77079
 Alpha virt. eigenvalues --    2.78577   2.79189   2.80117   2.80723   2.82986
 Alpha virt. eigenvalues --    2.85312   2.85502   2.88275   2.90993   2.96780
 Alpha virt. eigenvalues --    2.99592   3.01196   3.01541   3.02228   3.03195
 Alpha virt. eigenvalues --    3.03519   3.07412   3.08462   3.10191   3.10558
 Alpha virt. eigenvalues --    3.12005   3.13637   3.16673   3.17022   3.20726
 Alpha virt. eigenvalues --    3.22434   3.23003   3.23863   3.24893   3.26099
 Alpha virt. eigenvalues --    3.26602   3.26902   3.27555   3.28053   3.29160
 Alpha virt. eigenvalues --    3.29910   3.30486   3.31597   3.32069   3.33160
 Alpha virt. eigenvalues --    3.33541   3.34434   3.34918   3.35095   3.35591
 Alpha virt. eigenvalues --    3.35793   3.36217   3.37052   3.38902   3.41221
 Alpha virt. eigenvalues --    3.42596   3.43256   3.44205   3.44859   3.48744
 Alpha virt. eigenvalues --    3.50606   3.55820   3.80223   4.08265   4.18544
 Alpha virt. eigenvalues --   21.43795  21.68615  21.71093  21.71987  21.73101
 Alpha virt. eigenvalues --   21.75219  21.76951  21.78533  21.81233  21.81902
 Alpha virt. eigenvalues --   21.83893  21.84851  21.86589  21.87281  21.88799
 Alpha virt. eigenvalues --   21.89892  21.91334  22.03201  43.05902  43.16406
          Condensed to atoms (all electrons):
 Mulliken charges:
               1
     1  C   -0.418746
     2  C   -0.228156
     3  C   -0.260343
     4  C   -0.244774
     5  C   -0.251378
     6  C   -0.250581
     7  C   -0.306416
     8  C   -0.237504
     9  C   -0.180981
    10  C   -0.181918
    11  C   -0.240729
    12  C   -0.307734
    13  C   -0.253960
    14  C   -0.245417
    15  C   -0.267986
    16  C   -0.262111
    17  C   -0.265734
    18  C    0.203106
    19  O   -0.364146
    20  O   -0.286773
    21  H    0.144524
    22  H    0.131785
    23  H    0.131722
    24  H    0.126725
    25  H    0.126737
    26  H    0.123124
    27  H    0.122945
    28  H    0.124439
    29  H    0.124151
    30  H    0.126622
    31  H    0.126715
    32  H    0.127963
    33  H    0.128556
    34  H    0.138137
    35  H    0.139937
    36  H    0.146145
    37  H    0.146428
    38  H    0.143468
    39  H    0.143233
    40  H    0.146538
    41  H    0.148827
    42  H    0.137378
    43  H    0.142123
    44  H    0.129798
    45  H    0.129220
    46  H    0.129260
    47  H    0.129483
    48  H    0.131908
    49  H    0.132171
    50  H    0.138935
    51  H    0.138504
    52  H    0.182106
    53  H    0.182824
    54  H    0.329850
 Sum of Mulliken charges =  -0.00000
 Mulliken charges with hydrogens summed into heavy atoms:
               1
     1  C   -0.010715
     2  C    0.025306
     3  C   -0.014273
     4  C    0.003816
     5  C    0.001959
     6  C    0.005937
     7  C   -0.028342
     8  C    0.055069
     9  C   -0.037514
    10  C   -0.038685
    11  C    0.054637
    12  C   -0.028233
    13  C    0.005057
    14  C    0.013326
    15  C   -0.003906
    16  C    0.015328
    17  C    0.099196
    18  C    0.203106
    19  O   -0.364146
    20  O    0.043077
 Electronic spatial extent (au):  <R**2>=          17169.3636
 Charge=             -0.0000 electrons
 Dipole moment (field-independent basis, Debye):
    X=             -0.4240    Y=              0.1110    Z=              2.3654  Tot=              2.4056
 Quadrupole moment (field-independent basis, Debye-Ang):
   XX=           -119.7968   YY=           -134.5789   ZZ=           -136.9275
   XY=             -1.7375   XZ=            -11.5873   YZ=             -6.8620
 Traceless Quadrupole moment (field-independent basis, Debye-Ang):
   XX=             10.6376   YY=             -4.1445   ZZ=             -6.4931
   XY=             -1.7375   XZ=            -11.5873   YZ=             -6.8620
 Octapole moment (field-independent basis, Debye-Ang**2):
  XXX=           -153.7310  YYY=            -64.2643  ZZZ=              6.9569  XYY=            -71.4281
  XXY=            -28.3021  XXZ=             54.5948  XZZ=             11.9220  YZZ=              7.2346
  YYZ=              6.6714  XYZ=             23.7821
 Hexadecapole moment (field-independent basis, Debye-Ang**3):
 XXXX=         -14957.4714 YYYY=          -6557.9723 ZZZZ=           -510.6501 XXXY=            802.1130
 XXXZ=           -285.6552 YYYX=            341.5344 YYYZ=           -131.0773 ZZZX=            -35.2168
 ZZZY=            -18.1175 XXYY=          -3474.8339 XXZZ=          -3072.8686 YYZZ=          -1204.9457
 XXYZ=           -170.6453 YYXZ=            -71.5046 ZZXY=            -43.8866
 N-N= 1.407775945325D+03 E-N=-4.806670939183D+03  KE= 8.526406029488D+02
 Unable to Open any file for archive entry.
 1\1\GINC-TCN1655\SP\RBP86\TZVP\C18H34O2\ELENAA\23-Feb-2021\0\\# BP86/T
 ZVP SCRF=COSMORS geom=CHECKPOINT guess=CHECKPOINT\\COSMO-file for #ZQP
 PMHVWECSIRJ-KTKRTIGZSA-N\\0,1\C,0,8.2921547138,-5.6563492128,4.0628011
 776\C,0,8.0854322206,-4.9435243257,2.7205830587\C,0,6.737182084,-4.215
 937928,2.6279827183\C,0,6.5184179855,-3.4975257912,1.290234347\C,0,5.1
 706840657,-2.7697166124,1.199136369\C,0,4.9553510485,-2.0488335366,-0.
 1378871515\C,0,3.6101120002,-1.3175337298,-0.224673146\C,0,3.409127172
 9,-0.5769171861,-1.5647726803\C,0,2.0686852263,0.1034354672,-1.6438753
 279\C,0,1.8210017888,1.4150239416,-1.4766061336\C,0,2.8309493351,2.489
 6478364,-1.1722756936\C,0,2.8473046489,2.8659883881,0.3252471961\C,0,3
 .8404398798,3.987514601,0.6536888664\C,0,3.8751692022,4.3479359134,2.1
 443251282\C,0,4.8733687092,5.4646010061,2.4765898778\C,0,4.9056050816,
 5.8165058679,3.969128346\C,0,5.9086980309,6.928048675,4.2817998968\C,0
 ,5.9728251149,7.2993057909,5.7454506404\O,0,5.3070505538,6.8076843131,
 6.6436468975\O,0,6.8919320808,8.2842278339,5.9690961579\H,0,9.26496991
 41,-6.1701617164,4.105071474\H,0,8.2537682522,-4.940508843,4.899968058
 1\H,0,7.5065195588,-6.4099756859,4.2347612104\H,0,8.1585148579,-5.6752
 332583,1.8963473917\H,0,8.9004448936,-4.2160959138,2.5571120697\H,0,6.
 6622670135,-3.4830757019,3.4525311039\H,0,5.919889744,-4.942746169,2.7
 902924385\H,0,6.5931461165,-4.2305519558,0.4660466886\H,0,7.336059572,
 -2.7711701909,1.1286183035\H,0,5.095409382,-2.037582124,2.0239785922\H
 ,0,4.3523871973,-3.4956701149,1.3584874251\H,0,5.7743609241,-1.3237101
 515,-0.2975154458\H,0,5.0275150989,-2.7797902389,-0.9639514319\H,0,2.7
 867726899,-2.0391312164,-0.0767821793\H,0,3.5317144102,-0.5858381705,0
 .5987453162\H,0,3.5013323019,-1.3076814886,-2.3882052446\H,0,4.2289253
 002,0.1483335325,-1.6943458759\H,0,1.2131151681,-0.5629838205,-1.80999
 93689\H,0,0.7765240326,1.7484604117,-1.5139824355\H,0,2.5966288529,3.3
 941939942,-1.7612860046\H,0,3.8449480492,2.1751820163,-1.4686957693\H,
 0,1.8319511632,3.1675052495,0.6391362326\H,0,3.0977886235,1.9649087022
 ,0.9124212467\H,0,3.5840641781,4.8870999811,0.0648842633\H,0,4.8522537
 994,3.6847188049,0.3274737631\H,0,2.8641545181,4.6530459895,2.47032552
 56\H,0,4.1281845308,3.4463598853,2.7314638523\H,0,5.8839820416,5.15975
 97077,2.1492404866\H,0,4.6200292999,6.3672963421,1.8915255488\H,0,5.16
 04675491,4.9191740072,4.5571500652\H,0,3.9007408392,6.1272434227,4.300
 1323925\H,0,6.927423965,6.6441945433,3.9666330633\H,0,5.6727345884,7.8
 467057475,3.717509888\H,0,6.8859206306,8.4798531104,6.9308268113\\Vers
 ion=ES64L-G16RevC.01\State=1-A\HF=-857.1460704\RMSD=9.342e-10\Dipole=0
 .6841952,0.3781592,-0.5335155\Quadrupole=0.2299998,10.59546,-10.825459
 8,4.5428304,3.7478029,-0.3870593\PG=C01 [X(C18H34O2)]\\@
 The archive entry for this job was punched.


      HUMANKIND PERIODICALLY GOES THROUGH A SPEEDUP OF ITS AFFAIRS, 
      THEREBY EXPERIENCING THE RACE BETWEEN THE RENEWABLE VITALITY
      OF THE LIVING, AND THE BECKONING VITIATION OF DECADENCE.
      IN THIS PERIODIC RACE, ANY PAUSE BECOMES A LUXURY.
      ONLY THEN CAN ONE REFLECT THAT ALL IS PERMITTED;
      ALL IS POSSIBLE.

                              -- THE APOCRYPHA OF MUAD'DIB
                                 CHILDREN OF DUNE, BY FRANK HERBERT
 Job cpu time:       0 days  0 hours 29 minutes 59.4 seconds.
 Elapsed time:       0 days  0 hours  0 minutes 58.0 seconds.
 File lengths (MBytes):  RWF=    272 Int=      0 D2E=      0 Chk=     33 Scr=      1
 Normal termination of Gaussian 16 at Tue Feb 23 01:33:49 2021.
